Program Version,EnergyPlus, Version 8.6.0-198c6a3cff, YMD=2016.11.21 15:05
1,5,Environment Title[],Latitude[deg],Longitude[deg],Time Zone[],Elevation[m]
2,6,Day of Simulation[],Month[],Day of Month[],DST Indicator[1=yes 0=no],Hour[],StartMinute[],EndMinute[],DayType
3,3,Cumulative Day of Simulation[],Month[],Day of Month[],DST Indicator[1=yes 0=no],DayType  ! When Daily Report Variables Requested
4,2,Cumulative Days of Simulation[],Month[]  ! When Monthly Report Variables Requested
5,1,Cumulative Days of Simulation[] ! When Run Period Report Variables Requested
6,1,Environment,Site Outdoor Air Drybulb Temperature [C] !TimeStep
7,1,Environment,Site Outdoor Air Wetbulb Temperature [C] !TimeStep
8,1,Environment,Site Outdoor Air Humidity Ratio [kgWater/kgDryAir] !TimeStep
9,1,Environment,Site Outdoor Air Barometric Pressure [Pa] !TimeStep
227,1,WEST ZONE,Zone Air Temperature [C] !TimeStep
260,1,EAST ZONE,Zone Air Temperature [C] !TimeStep
293,1,NORTH ZONE,Zone Air Temperature [C] !TimeStep
294,1,CHILLED WATER LOOP,Plant Supply Side Cooling Demand Rate [W] !TimeStep
295,1,CHILLED WATER LOOP,Plant Supply Side Heating Demand Rate [W] !TimeStep
296,1,HOT WATER LOOP,Plant Supply Side Cooling Demand Rate [W] !TimeStep
297,1,HOT WATER LOOP,Plant Supply Side Heating Demand Rate [W] !TimeStep
298,1,CHILLED WATER CONDENSER LOOP,Plant Supply Side Cooling Demand Rate [W] !TimeStep
299,1,CHILLED WATER CONDENSER LOOP,Plant Supply Side Heating Demand Rate [W] !TimeStep
300,1,REHEAT COIL ZONE 1,Heating Coil Heating Energy [J] !TimeStep
352,1,REHEAT COIL ZONE 2,Heating Coil Heating Energy [J] !TimeStep
354,1,REHEAT COIL ZONE 3,Heating Coil Heating Energy [J] !TimeStep
356,1,DETAILED COOLING COIL,Cooling Coil Total Cooling Energy [J] !TimeStep
522,1,LITTLE CHILLER,Chiller Electric Power [W] !TimeStep
544,1,LITTLE CHILLER,Chiller Evaporator Cooling Rate [W] !TimeStep
566,1,LITTLE CHILLER,Chiller Evaporator Inlet Temperature [C] !TimeStep
567,1,LITTLE CHILLER,Chiller Evaporator Outlet Temperature [C] !TimeStep
568,1,LITTLE CHILLER,Chiller Evaporator Mass Flow Rate [kg/s] !TimeStep
569,1,LITTLE CHILLER,Chiller Condenser Heat Transfer Rate [W] !TimeStep
581,1,LITTLE CHILLER,Chiller Condenser Inlet Temperature [C] !TimeStep
582,1,LITTLE CHILLER,Chiller Condenser Outlet Temperature [C] !TimeStep
583,1,LITTLE CHILLER,Chiller Condenser Mass Flow Rate [kg/s] !TimeStep
584,1,BIG CHILLER,Chiller Electric Power [W] !TimeStep
586,1,BIG CHILLER,Chiller Evaporator Cooling Rate [W] !TimeStep
588,1,BIG CHILLER,Chiller Evaporator Inlet Temperature [C] !TimeStep
589,1,BIG CHILLER,Chiller Evaporator Outlet Temperature [C] !TimeStep
590,1,BIG CHILLER,Chiller Evaporator Mass Flow Rate [kg/s] !TimeStep
591,1,BIG CHILLER,Chiller Condenser Heat Transfer Rate [W] !TimeStep
593,1,BIG CHILLER,Chiller Condenser Inlet Temperature [C] !TimeStep
594,1,BIG CHILLER,Chiller Condenser Outlet Temperature [C] !TimeStep
595,1,BIG CHILLER,Chiller Condenser Mass Flow Rate [kg/s] !TimeStep
658,1,BIG TOWER1,Cooling Tower Inlet Temperature [C] !TimeStep
659,1,BIG TOWER1,Cooling Tower Outlet Temperature [C] !TimeStep
660,1,BIG TOWER1,Cooling Tower Mass Flow Rate [kg/s] !TimeStep
661,1,BIG TOWER1,Cooling Tower Heat Transfer Rate [W] !TimeStep
662,1,BIG TOWER1,Cooling Tower Fan Electric Power [W] !TimeStep
663,1,BIG TOWER1,Cooling Tower Fan Electric Energy [J] !TimeStep
674,1,BIG TOWER2,Cooling Tower Inlet Temperature [C] !TimeStep
675,1,BIG TOWER2,Cooling Tower Outlet Temperature [C] !TimeStep
676,1,BIG TOWER2,Cooling Tower Mass Flow Rate [kg/s] !TimeStep
677,1,BIG TOWER2,Cooling Tower Heat Transfer Rate [W] !TimeStep
678,1,BIG TOWER2,Cooling Tower Fan Electric Power [W] !TimeStep
679,1,BIG TOWER2,Cooling Tower Fan Electric Energy [J] !TimeStep
End of Data Dictionary
1,CHICAGO OHARE INTL AP ANN HTG 99% CONDNS DB,  37.62,-122.40,  -8.00,   2.00
2,1, 1,21, 0, 1, 0.00,10.00,WinterDesignDay
6,-16.6
7,-16.6
8,0.0008974771856968442
9,98886.0
227,15.008092526100822
260,14.99870960295823
293,14.999132758041722
294,0.0
295,0.0
296,0.0
297,10963.231446853395
298,0.0
299,0.0
300,1848089.042422221
352,1911799.7474677317
354,2811275.584629309
356,0.0
522,0.0
544,0.0
566,6.67
567,6.67
568,0.0
569,0.0
581,10.0
582,10.0
583,0.0
584,0.0
586,0.0
588,6.67
589,6.67
590,0.0
591,0.0
593,10.0
594,10.0
595,0.0
658,10.0
659,10.0
660,0.0
661,0.0
662,0.0
663,0.0
674,10.0
675,10.0
676,0.0
677,0.0
678,0.0
679,0.0
2,1, 1,21, 0, 1,10.00,20.00,WinterDesignDay
6,-16.6
7,-16.6
8,0.0008974771856968442
9,98886.0
227,15.006828949581028
260,15.002064302017907
293,15.00666838606137
294,0.0
295,0.0
296,0.0
297,11006.138650553223
298,0.0
299,0.0
300,1847959.977828952
352,1920247.5153775586
354,2826265.95658411
356,0.0
522,0.0
544,0.0
566,6.67
567,6.67
568,0.0
569,0.0
581,10.0
582,10.0
583,0.0
584,0.0
586,0.0
588,6.67
589,6.67
590,0.0
591,0.0
593,10.0
594,10.0
595,0.0
658,10.0
659,10.0
660,0.0
661,0.0
662,0.0
663,0.0
674,10.0
675,10.0
676,0.0
677,0.0
678,0.0
679,0.0
2,1, 1,21, 0, 1,20.00,30.00,WinterDesignDay
6,-16.6
7,-16.6
8,0.0008974771856968442
9,98886.0
227,14.996637940762783
260,15.006157548513884
293,15.002159125273004
294,0.0
295,0.0
296,0.0
297,10999.175855110403
298,0.0
299,0.0
300,1847829.9884760406
352,1928658.865130856
354,2826069.86702994
356,0.0
522,0.0
544,0.0
566,6.67
567,6.67
568,0.0
569,0.0
581,10.0
582,10.0
583,0.0
584,0.0
586,0.0
588,6.67
589,6.67
590,0.0
591,0.0
593,10.0
594,10.0
595,0.0
658,10.0
659,10.0
660,0.0
661,0.0
662,0.0
663,0.0
674,10.0
675,10.0
676,0.0
677,0.0
678,0.0
679,0.0
2,1, 1,21, 0, 1,30.00,40.00,WinterDesignDay
6,-16.6
7,-16.6
8,0.0008974771856968442
9,98886.0
227,15.007145835225977
260,14.996539543211148
293,15.002022366073247
294,0.0
295,0.0
296,0.0
297,11063.270408374832
298,0.0
299,0.0
300,1867211.4569283233
352,1928836.0988292024
354,2841432.2672340439
356,0.0
522,0.0
544,0.0
566,6.67
567,6.67
568,0.0
569,0.0
581,10.0
582,10.0
583,0.0
584,0.0
586,0.0
588,6.67
589,6.67
590,0.0
591,0.0
593,10.0
594,10.0
595,0.0
658,10.0
659,10.0
660,0.0
661,0.0
662,0.0
663,0.0
674,10.0
675,10.0
676,0.0
677,0.0
678,0.0
679,0.0
2,1, 1,21, 0, 1,40.00,50.00,WinterDesignDay
6,-16.6
7,-16.6
8,0.0008974771856968442
9,98886.0
227,15.006678519967745
260,15.005229493126274
293,14.995251023358938
294,0.0
295,0.0
296,0.0
297,11074.425531181845
298,0.0
299,0.0
300,1867166.8430798283
352,1945781.7560108768
354,2841365.299201678
356,0.0
522,0.0
544,0.0
566,6.67
567,6.67
568,0.0
569,0.0
581,10.0
582,10.0
583,0.0
584,0.0
586,0.0
588,6.67
589,6.67
590,0.0
591,0.0
593,10.0
594,10.0
595,0.0
658,10.0
659,10.0
660,0.0
661,0.0
662,0.0
663,0.0
674,10.0
675,10.0
676,0.0
677,0.0
678,0.0
679,0.0
2,1, 1,21, 0, 1,50.00,60.00,WinterDesignDay
6,-16.6
7,-16.6
8,0.0008974771856968442
9,98886.0
227,14.995648928427327
260,15.003061349311457
293,14.99737107211948
294,0.0
295,0.0
296,0.0
297,11103.073922466174
298,0.0
299,0.0
300,1867175.4940215403
352,1945790.759625334
354,2856406.17005385
356,0.0
522,0.0
544,0.0
566,6.67
567,6.67
568,0.0
569,0.0
581,10.0
582,10.0
583,0.0
584,0.0
586,0.0
588,6.67
589,6.67
590,0.0
591,0.0
593,10.0
594,10.0
595,0.0
658,10.0
659,10.0
660,0.0
661,0.0
662,0.0
663,0.0
674,10.0
675,10.0
676,0.0
677,0.0
678,0.0
679,0.0
2,1, 1,21, 0, 2, 0.00,10.00,WinterDesignDay
6,-16.6
7,-16.6
8,0.0008974771856968442
9,98886.0
227,15.006093053891397
260,15.000573398452602
293,15.005316778140037
294,0.0
295,0.0
296,0.0
297,11183.528695103512
298,0.0
299,0.0
300,1886397.847668172
352,1954400.1797959689
354,2871595.0219395898
356,0.0
522,0.0
544,0.0
566,6.67
567,6.67
568,0.0
569,0.0
581,10.0
582,10.0
583,0.0
584,0.0
586,0.0
588,6.67
589,6.67
590,0.0
591,0.0
593,10.0
594,10.0
595,0.0
658,10.0
659,10.0
660,0.0
661,0.0
662,0.0
663,0.0
674,10.0
675,10.0
676,0.0
677,0.0
678,0.0
679,0.0
2,1, 1,21, 0, 2,10.00,20.00,WinterDesignDay
6,-16.6
7,-16.6
8,0.0008974771856968442
9,98886.0
227,15.00818802304131
260,15.005127697111542
293,15.001725795295109
294,0.0
295,0.0
296,0.0
297,11177.77084525809
298,0.0
299,0.0
300,1886150.6139058669
352,1962555.9064753429
354,2871223.837184145
356,0.0
522,0.0
544,0.0
566,6.67
567,6.67
568,0.0
569,0.0
581,10.0
582,10.0
583,0.0
584,0.0
586,0.0
588,6.67
589,6.67
590,0.0
591,0.0
593,10.0
594,10.0
595,0.0
658,10.0
659,10.0
660,0.0
661,0.0
662,0.0
663,0.0
674,10.0
675,10.0
676,0.0
677,0.0
678,0.0
679,0.0
2,1, 1,21, 0, 2,20.00,30.00,WinterDesignDay
6,-16.6
7,-16.6
8,0.0008974771856968442
9,98886.0
227,14.999081263415482
260,14.999625688925527
293,15.004312726397309
294,0.0
295,0.0
296,0.0
297,11206.27218692652
298,0.0
299,0.0
300,1886120.7314601779
352,1962524.8525576033
354,2886052.562926851
356,0.0
522,0.0
544,0.0
566,6.67
567,6.67
568,0.0
569,0.0
581,10.0
582,10.0
583,0.0
584,0.0
586,0.0
588,6.67
589,6.67
590,0.0
591,0.0
593,10.0
594,10.0
595,0.0
658,10.0
659,10.0
660,0.0
661,0.0
662,0.0
663,0.0
674,10.0
675,10.0
676,0.0
677,0.0
678,0.0
679,0.0
2,1, 1,21, 0, 2,30.00,40.00,WinterDesignDay
6,-16.6
7,-16.6
8,0.0008974771856968442
9,98886.0
227,14.998440694331832
260,14.997600578988159
293,14.998299157301002
294,0.0
295,0.0
296,0.0
297,11220.201332231276
298,0.0
299,0.0
300,1895759.2590690968
352,1971071.1367130995
354,2886295.473456089
356,0.0
522,0.0
544,0.0
566,6.67
567,6.67
568,0.0
569,0.0
581,10.0
582,10.0
583,0.0
584,0.0
586,0.0
588,6.67
589,6.67
590,0.0
591,0.0
593,10.0
594,10.0
595,0.0
658,10.0
659,10.0
660,0.0
661,0.0
662,0.0
663,0.0
674,10.0
675,10.0
676,0.0
677,0.0
678,0.0
679,0.0
2,1, 1,21, 0, 2,40.00,50.00,WinterDesignDay
6,-16.6
7,-16.6
8,0.0008974771856968442
9,98886.0
227,15.004090332414278
260,15.000708390559732
293,15.000054716676852
294,0.0
295,0.0
296,0.0
297,11284.286951493961
298,0.0
299,0.0
300,1905325.0042215519
352,1979546.1096357844
354,2901281.1802825818
356,0.0
522,0.0
544,0.0
566,6.67
567,6.67
568,0.0
569,0.0
581,10.0
582,10.0
583,0.0
584,0.0
586,0.0
588,6.67
589,6.67
590,0.0
591,0.0
593,10.0
594,10.0
595,0.0
658,10.0
659,10.0
660,0.0
661,0.0
662,0.0
663,0.0
674,10.0
675,10.0
676,0.0
677,0.0
678,0.0
679,0.0
2,1, 1,21, 0, 2,50.00,60.00,WinterDesignDay
6,-16.6
7,-16.6
8,0.0008974771856968442
9,98886.0
227,15.000752541751563
260,14.995515482862296
293,14.996296835759644
294,0.0
295,0.0
296,0.0
297,11264.37883989953
298,0.0
299,0.0
300,1905176.8048845165
352,1979392.3262826699
354,2901058.6453185046
356,0.0
522,0.0
544,0.0
566,6.67
567,6.67
568,0.0
569,0.0
581,10.0
582,10.0
583,0.0
584,0.0
586,0.0
588,6.67
589,6.67
590,0.0
591,0.0
593,10.0
594,10.0
595,0.0
658,10.0
659,10.0
660,0.0
661,0.0
662,0.0
663,0.0
674,10.0
675,10.0
676,0.0
677,0.0
678,0.0
679,0.0
2,1, 1,21, 0, 3, 0.00,10.00,WinterDesignDay
6,-16.6
7,-16.6
8,0.0008974771856968442
9,98886.0
227,15.001350257759553
260,15.005548426672569
293,14.999204273625895
294,0.0
295,0.0
296,0.0
297,11345.611069217151
298,0.0
299,0.0
300,1914750.8672607914
352,1996161.6045434182
354,2916035.613069251
356,0.0
522,0.0
544,0.0
566,6.67
567,6.67
568,0.0
569,0.0
581,10.0
582,10.0
583,0.0
584,0.0
586,0.0
588,6.67
589,6.67
590,0.0
591,0.0
593,10.0
594,10.0
595,0.0
658,10.0
659,10.0
660,0.0
661,0.0
662,0.0
663,0.0
674,10.0
675,10.0
676,0.0
677,0.0
678,0.0
679,0.0
2,1, 1,21, 0, 3,10.00,20.00,WinterDesignDay
6,-16.6
7,-16.6
8,0.0008974771856968442
9,98886.0
227,15.009276195212268
260,15.00545084447924
293,14.995760597762395
294,0.0
295,0.0
296,0.0
297,11343.986638807672
298,0.0
299,0.0
300,1923950.574690471
352,1995984.3207393704
354,2915779.903369214
356,0.0
522,0.0
544,0.0
566,6.67
567,6.67
568,0.0
569,0.0
581,10.0
582,10.0
583,0.0
584,0.0
586,0.0
588,6.67
589,6.67
590,0.0
591,0.0
593,10.0
594,10.0
595,0.0
658,10.0
659,10.0
660,0.0
661,0.0
662,0.0
663,0.0
674,10.0
675,10.0
676,0.0
677,0.0
678,0.0
679,0.0
2,1, 1,21, 0, 3,20.00,30.00,WinterDesignDay
6,-16.6
7,-16.6
8,0.0008974771856968442
9,98886.0
227,15.006634859666317
260,14.995503605983691
293,15.000411762868259
294,0.0
295,0.0
296,0.0
297,11374.563944939102
298,0.0
299,0.0
300,1923883.1848103526
352,1995914.4916519386
354,2930328.263714124
356,0.0
522,0.0
544,0.0
566,6.67
567,6.67
568,0.0
569,0.0
581,10.0
582,10.0
583,0.0
584,0.0
586,0.0
588,6.67
589,6.67
590,0.0
591,0.0
593,10.0
594,10.0
595,0.0
658,10.0
659,10.0
660,0.0
661,0.0
662,0.0
663,0.0
674,10.0
675,10.0
676,0.0
677,0.0
678,0.0
679,0.0
2,1, 1,21, 0, 3,30.00,40.00,WinterDesignDay
6,-16.6
7,-16.6
8,0.0008974771856968442
9,98886.0
227,14.996705117842544
260,15.005847296868942
293,14.996474715404166
294,0.0
295,0.0
296,0.0
297,11388.959651642277
298,0.0
299,0.0
300,1923968.9501097764
352,2012468.0773886748
354,2930457.0651572959
356,0.0
522,0.0
544,0.0
566,6.67
567,6.67
568,0.0
569,0.0
581,10.0
582,10.0
583,0.0
584,0.0
586,0.0
588,6.67
589,6.67
590,0.0
591,0.0
593,10.0
594,10.0
595,0.0
658,10.0
659,10.0
660,0.0
661,0.0
662,0.0
663,0.0
674,10.0
675,10.0
676,0.0
677,0.0
678,0.0
679,0.0
2,1, 1,21, 0, 3,40.00,50.00,WinterDesignDay
6,-16.6
7,-16.6
8,0.0008974771856968442
9,98886.0
227,14.99810424068
260,15.005564697079438
293,14.99959672278416
294,0.0
295,0.0
296,0.0
297,11437.777067203846
298,0.0
299,0.0
300,1933395.015161675
352,2012563.0023770086
354,2945170.204072512
356,0.0
522,0.0
544,0.0
566,6.67
567,6.67
568,0.0
569,0.0
581,10.0
582,10.0
583,0.0
584,0.0
586,0.0
588,6.67
589,6.67
590,0.0
591,0.0
593,10.0
594,10.0
595,0.0
658,10.0
659,10.0
660,0.0
661,0.0
662,0.0
663,0.0
674,10.0
675,10.0
676,0.0
677,0.0
678,0.0
679,0.0
2,1, 1,21, 0, 3,50.00,60.00,WinterDesignDay
6,-16.6
7,-16.6
8,0.0008974771856968442
9,98886.0
227,15.006937966429016
260,14.995577827291916
293,14.996413467620095
294,0.0
295,0.0
296,0.0
297,11437.544193212289
298,0.0
299,0.0
300,1942628.6786372318
352,2012494.2568791938
354,2945070.8891481875
356,0.0
522,0.0
544,0.0
566,6.67
567,6.67
568,0.0
569,0.0
581,10.0
582,10.0
583,0.0
584,0.0
586,0.0
588,6.67
589,6.67
590,0.0
591,0.0
593,10.0
594,10.0
595,0.0
658,10.0
659,10.0
660,0.0
661,0.0
662,0.0
663,0.0
674,10.0
675,10.0
676,0.0
677,0.0
678,0.0
679,0.0
2,1, 1,21, 0, 4, 0.00,10.00,WinterDesignDay
6,-16.6
7,-16.6
8,0.0008974771856968442
9,98886.0
227,15.003690992928052
260,15.006604979372373
293,15.00091512148641
294,0.0
295,0.0
296,0.0
297,11501.582644989148
298,0.0
299,0.0
300,1942659.5312810464
352,2028863.743960412
354,2959620.3584398857
356,0.0
522,0.0
544,0.0
566,6.67
567,6.67
568,0.0
569,0.0
581,10.0
582,10.0
583,0.0
584,0.0
586,0.0
588,6.67
589,6.67
590,0.0
591,0.0
593,10.0
594,10.0
595,0.0
658,10.0
659,10.0
660,0.0
661,0.0
662,0.0
663,0.0
674,10.0
675,10.0
676,0.0
677,0.0
678,0.0
679,0.0
2,1, 1,21, 0, 4,10.00,20.00,WinterDesignDay
6,-16.6
7,-16.6
8,0.0008974771856968442
9,98886.0
227,14.99583679240844
260,15.00873816248271
293,14.998912645805941
294,0.0
295,0.0
296,0.0
297,11483.746901675677
298,0.0
299,0.0
300,1942509.8087157768
352,2028707.5980854508
354,2959395.48426908
356,0.0
522,0.0
544,0.0
566,6.67
567,6.67
568,0.0
569,0.0
581,10.0
582,10.0
583,0.0
584,0.0
586,0.0
588,6.67
589,6.67
590,0.0
591,0.0
593,10.0
594,10.0
595,0.0
658,10.0
659,10.0
660,0.0
661,0.0
662,0.0
663,0.0
674,10.0
675,10.0
676,0.0
677,0.0
678,0.0
679,0.0
2,1, 1,21, 0, 4,20.00,30.00,WinterDesignDay
6,-16.6
7,-16.6
8,0.0008974771856968442
9,98886.0
227,14.998360746124386
260,14.998753218833052
293,15.003250094686928
294,0.0
295,0.0
296,0.0
297,11533.181836652195
298,0.0
299,0.0
300,1951901.6985782046
352,2028839.9501670465
354,2974016.8617862809
356,0.0
522,0.0
544,0.0
566,6.67
567,6.67
568,0.0
569,0.0
581,10.0
582,10.0
583,0.0
584,0.0
586,0.0
588,6.67
589,6.67
590,0.0
591,0.0
593,10.0
594,10.0
595,0.0
658,10.0
659,10.0
660,0.0
661,0.0
662,0.0
663,0.0
674,10.0
675,10.0
676,0.0
677,0.0
678,0.0
679,0.0
2,1, 1,21, 0, 4,30.00,40.00,WinterDesignDay
6,-16.6
7,-16.6
8,0.0008974771856968442
9,98886.0
227,15.006789047631564
260,14.998668788633385
293,15.000151771883975
294,0.0
295,0.0
296,0.0
297,11549.906540354774
298,0.0
299,0.0
300,1961144.3209321029
352,2036974.0016845908
354,2974035.181671964
356,0.0
522,0.0
544,0.0
566,6.67
567,6.67
568,0.0
569,0.0
581,10.0
582,10.0
583,0.0
584,0.0
586,0.0
588,6.67
589,6.67
590,0.0
591,0.0
593,10.0
594,10.0
595,0.0
658,10.0
659,10.0
660,0.0
661,0.0
662,0.0
663,0.0
674,10.0
675,10.0
676,0.0
677,0.0
678,0.0
679,0.0
2,1, 1,21, 0, 4,40.00,50.00,WinterDesignDay
6,-16.6
7,-16.6
8,0.0008974771856968442
9,98886.0
227,15.00462009687015
260,15.00655434415939
293,15.005582637209221
294,0.0
295,0.0
296,0.0
297,11597.736862211628
298,0.0
299,0.0
300,1961062.305801862
352,2044978.686527714
354,2988271.055425291
356,0.0
522,0.0
544,0.0
566,6.67
567,6.67
568,0.0
569,0.0
581,10.0
582,10.0
583,0.0
584,0.0
586,0.0
588,6.67
589,6.67
590,0.0
591,0.0
593,10.0
594,10.0
595,0.0
658,10.0
659,10.0
660,0.0
661,0.0
662,0.0
663,0.0
674,10.0
675,10.0
676,0.0
677,0.0
678,0.0
679,0.0
2,1, 1,21, 0, 4,50.00,60.00,WinterDesignDay
6,-16.6
7,-16.6
8,0.0008974771856968442
9,98886.0
227,14.997757831227594
260,15.004425283688415
293,15.004586036563295
294,0.0
295,0.0
296,0.0
297,11580.619378152169
298,0.0
299,0.0
300,1960917.4138853569
352,2044827.8032203392
354,2988053.420636103
356,0.0
522,0.0
544,0.0
566,6.67
567,6.67
568,0.0
569,0.0
581,10.0
582,10.0
583,0.0
584,0.0
586,0.0
588,6.67
589,6.67
590,0.0
591,0.0
593,10.0
594,10.0
595,0.0
658,10.0
659,10.0
660,0.0
661,0.0
662,0.0
663,0.0
674,10.0
675,10.0
676,0.0
677,0.0
678,0.0
679,0.0
2,1, 1,21, 0, 5, 0.00,10.00,WinterDesignDay
6,-16.6
7,-16.6
8,0.0008974771856968442
9,98886.0
227,15.000578925322312
260,14.994260405045968
293,15.00941744296072
294,0.0
295,0.0
296,0.0
297,11630.293800433878
298,0.0
299,0.0
300,1970260.9120192789
352,2044981.73148811
354,3002562.794612792
356,0.0
522,0.0
544,0.0
566,6.67
567,6.67
568,0.0
569,0.0
581,10.0
582,10.0
583,0.0
584,0.0
586,0.0
588,6.67
589,6.67
590,0.0
591,0.0
593,10.0
594,10.0
595,0.0
658,10.0
659,10.0
660,0.0
661,0.0
662,0.0
663,0.0
674,10.0
675,10.0
676,0.0
677,0.0
678,0.0
679,0.0
2,1, 1,21, 0, 5,10.00,20.00,WinterDesignDay
6,-16.6
7,-16.6
8,0.0008974771856968442
9,98886.0
227,14.998171463074734
260,15.006244846436969
293,15.006909951392242
294,0.0
295,0.0
296,0.0
297,11645.983842098385
298,0.0
299,0.0
300,1970262.998833291
352,2061070.3571306118
354,3002565.9291867299
356,0.0
522,0.0
544,0.0
566,6.67
567,6.67
568,0.0
569,0.0
581,10.0
582,10.0
583,0.0
584,0.0
586,0.0
588,6.67
589,6.67
590,0.0
591,0.0
593,10.0
594,10.0
595,0.0
658,10.0
659,10.0
660,0.0
661,0.0
662,0.0
663,0.0
674,10.0
675,10.0
676,0.0
677,0.0
678,0.0
679,0.0
2,1, 1,21, 0, 5,20.00,30.00,WinterDesignDay
6,-16.6
7,-16.6
8,0.0008974771856968442
9,98886.0
227,15.002780253094116
260,15.008983448310689
293,14.999139610534274
294,0.0
295,0.0
296,0.0
297,11648.497016770023
298,0.0
299,0.0
300,1979357.5047164949
352,2061000.654459253
354,3002465.69386209
356,0.0
522,0.0
544,0.0
566,6.67
567,6.67
568,0.0
569,0.0
581,10.0
582,10.0
583,0.0
584,0.0
586,0.0
588,6.67
589,6.67
590,0.0
591,0.0
593,10.0
594,10.0
595,0.0
658,10.0
659,10.0
660,0.0
661,0.0
662,0.0
663,0.0
674,10.0
675,10.0
676,0.0
677,0.0
678,0.0
679,0.0
2,1, 1,21, 0, 5,30.00,40.00,WinterDesignDay
6,-16.6
7,-16.6
8,0.0008974771856968442
9,98886.0
227,15.000395845387342
260,15.000608339965292
293,15.004428460262754
294,0.0
295,0.0
296,0.0
297,11682.089042153477
298,0.0
299,0.0
300,1979374.2273165032
352,2061018.0432658625
354,3016707.159968707
356,0.0
522,0.0
544,0.0
566,6.67
567,6.67
568,0.0
569,0.0
581,10.0
582,10.0
583,0.0
584,0.0
586,0.0
588,6.67
589,6.67
590,0.0
591,0.0
593,10.0
594,10.0
595,0.0
658,10.0
659,10.0
660,0.0
661,0.0
662,0.0
663,0.0
674,10.0
675,10.0
676,0.0
677,0.0
678,0.0
679,0.0
2,1, 1,21, 0, 5,40.00,50.00,WinterDesignDay
6,-16.6
7,-16.6
8,0.0008974771856968442
9,98886.0
227,14.992802658148295
260,15.00151265940568
293,15.00349337625361
294,0.0
295,0.0
296,0.0
297,11683.37309671563
298,0.0
299,0.0
300,1979429.4066428494
352,2069072.5074317388
354,3016790.045693032
356,0.0
522,0.0
544,0.0
566,6.67
567,6.67
568,0.0
569,0.0
581,10.0
582,10.0
583,0.0
584,0.0
586,0.0
588,6.67
589,6.67
590,0.0
591,0.0
593,10.0
594,10.0
595,0.0
658,10.0
659,10.0
660,0.0
661,0.0
662,0.0
663,0.0
674,10.0
675,10.0
676,0.0
677,0.0
678,0.0
679,0.0
2,1, 1,21, 0, 5,50.00,60.00,WinterDesignDay
6,-16.6
7,-16.6
8,0.0008974771856968442
9,98886.0
227,14.995699247472015
260,15.00867264379409
293,15.008599055886478
294,0.0
295,0.0
296,0.0
297,11750.278923512293
298,0.0
299,0.0
300,1988680.7511696344
352,2077168.1036165583
354,3031122.755710302
356,0.0
522,0.0
544,0.0
566,6.67
567,6.67
568,0.0
569,0.0
581,10.0
582,10.0
583,0.0
584,0.0
586,0.0
588,6.67
589,6.67
590,0.0
591,0.0
593,10.0
594,10.0
595,0.0
658,10.0
659,10.0
660,0.0
661,0.0
662,0.0
663,0.0
674,10.0
675,10.0
676,0.0
677,0.0
678,0.0
679,0.0
2,1, 1,21, 0, 6, 0.00,10.00,WinterDesignDay
6,-16.6
7,-16.6
8,0.0008974771856968442
9,98886.0
227,15.00681428032603
260,15.007266533279529
293,15.008021661931866
294,0.0
295,0.0
296,0.0
297,11752.195777772547
298,0.0
299,0.0
300,1997561.3474155849
352,2076946.0194001382
354,3030802.90157932
356,0.0
522,0.0
544,0.0
566,6.67
567,6.67
568,0.0
569,0.0
581,10.0
582,10.0
583,0.0
584,0.0
586,0.0
588,6.67
589,6.67
590,0.0
591,0.0
593,10.0
594,10.0
595,0.0
658,10.0
659,10.0
660,0.0
661,0.0
662,0.0
663,0.0
674,10.0
675,10.0
676,0.0
677,0.0
678,0.0
679,0.0
2,1, 1,21, 0, 6,10.00,20.00,WinterDesignDay
6,-16.6
7,-16.6
8,0.0008974771856968442
9,98886.0
227,15.0070746292863
260,15.000497101152807
293,15.002147305074079
294,0.0
295,0.0
296,0.0
297,11738.554548183494
298,0.0
299,0.0
300,1997411.3130598206
352,2076790.2291152839
354,3030578.5258355026
356,0.0
522,0.0
544,0.0
566,6.67
567,6.67
568,0.0
569,0.0
581,10.0
582,10.0
583,0.0
584,0.0
586,0.0
588,6.67
589,6.67
590,0.0
591,0.0
593,10.0
594,10.0
595,0.0
658,10.0
659,10.0
660,0.0
661,0.0
662,0.0
663,0.0
674,10.0
675,10.0
676,0.0
677,0.0
678,0.0
679,0.0
2,1, 1,21, 0, 6,20.00,30.00,WinterDesignDay
6,-16.6
7,-16.6
8,0.0008974771856968442
9,98886.0
227,14.998727717576081
260,14.991821067163345
293,14.993719892602844
294,0.0
295,0.0
296,0.0
297,11726.928982657986
298,0.0
299,0.0
300,1997582.574190849
352,2076968.0605179154
354,3030834.646083959
356,0.0
522,0.0
544,0.0
566,6.67
567,6.67
568,0.0
569,0.0
581,10.0
582,10.0
583,0.0
584,0.0
586,0.0
588,6.67
589,6.67
590,0.0
591,0.0
593,10.0
594,10.0
595,0.0
658,10.0
659,10.0
660,0.0
661,0.0
662,0.0
663,0.0
674,10.0
675,10.0
676,0.0
677,0.0
678,0.0
679,0.0
2,1, 1,21, 0, 6,30.00,40.00,WinterDesignDay
6,-16.6
7,-16.6
8,0.0008974771856968442
9,98886.0
227,14.999236464948157
260,15.003093017120332
293,14.997469353560899
294,0.0
295,0.0
296,0.0
297,11812.502565831508
298,0.0
299,0.0
300,2007015.756021132
352,2093198.3711695432
354,3045469.609942261
356,0.0
522,0.0
544,0.0
566,6.67
567,6.67
568,0.0
569,0.0
581,10.0
582,10.0
583,0.0
584,0.0
586,0.0
588,6.67
589,6.67
590,0.0
591,0.0
593,10.0
594,10.0
595,0.0
658,10.0
659,10.0
660,0.0
661,0.0
662,0.0
663,0.0
674,10.0
675,10.0
676,0.0
677,0.0
678,0.0
679,0.0
2,1, 1,21, 0, 6,40.00,50.00,WinterDesignDay
6,-16.6
7,-16.6
8,0.0008974771856968442
9,98886.0
227,14.998845360088066
260,15.006480847793803
293,14.997820308470555
294,0.0
295,0.0
296,0.0
297,11799.544722907427
298,0.0
299,0.0
300,2006810.4052545806
352,2092984.5077967579
354,3045162.497226165
356,0.0
522,0.0
544,0.0
566,6.67
567,6.67
568,0.0
569,0.0
581,10.0
582,10.0
583,0.0
584,0.0
586,0.0
588,6.67
589,6.67
590,0.0
591,0.0
593,10.0
594,10.0
595,0.0
658,10.0
659,10.0
660,0.0
661,0.0
662,0.0
663,0.0
674,10.0
675,10.0
676,0.0
677,0.0
678,0.0
679,0.0
2,1, 1,21, 0, 6,50.00,60.00,WinterDesignDay
6,-16.6
7,-16.6
8,0.0008974771856968442
9,98886.0
227,15.005119634531937
260,14.999825017275219
293,15.005334738893417
294,0.0
295,0.0
296,0.0
297,11851.792860494821
298,0.0
299,0.0
300,2015797.1378670876
352,2092942.126833778
354,3059110.7565968155
356,0.0
522,0.0
544,0.0
566,6.67
567,6.67
568,0.0
569,0.0
581,10.0
582,10.0
583,0.0
584,0.0
586,0.0
588,6.67
589,6.67
590,0.0
591,0.0
593,10.0
594,10.0
595,0.0
658,10.0
659,10.0
660,0.0
661,0.0
662,0.0
663,0.0
674,10.0
675,10.0
676,0.0
677,0.0
678,0.0
679,0.0
2,1, 1,21, 0, 7, 0.00,10.00,WinterDesignDay
6,-16.6
7,-16.6
8,0.0008974771856968442
9,98886.0
227,14.999640623414227
260,15.001615569111517
293,15.00223601253936
294,0.0
295,0.0
296,0.0
297,11398.754897140228
298,0.0
299,0.0
300,1997571.1931125178
352,2004144.9156003022
354,2988168.129107593
356,0.0
522,0.0
544,0.0
566,6.67
567,6.67
568,0.0
569,0.0
581,10.0
582,10.0
583,0.0
584,0.0
586,0.0
588,6.67
589,6.67
590,0.0
591,0.0
593,10.0
594,10.0
595,0.0
658,10.0
659,10.0
660,0.0
661,0.0
662,0.0
663,0.0
674,10.0
675,10.0
676,0.0
677,0.0
678,0.0
679,0.0
2,1, 1,21, 0, 7,10.00,20.00,WinterDesignDay
6,-16.6
7,-16.6
8,0.0008974771856968442
9,98886.0
227,14.990933211346528
260,15.001875645212829
293,15.008489970868294
294,0.0
295,0.0
296,0.0
297,11455.608649591795
298,0.0
299,0.0
300,1997686.7635072238
352,2004261.194150893
354,3002626.127968778
356,0.0
522,0.0
544,0.0
566,6.67
567,6.67
568,0.0
569,0.0
581,10.0
582,10.0
583,0.0
584,0.0
586,0.0
588,6.67
589,6.67
590,0.0
591,0.0
593,10.0
594,10.0
595,0.0
658,10.0
659,10.0
660,0.0
661,0.0
662,0.0
663,0.0
674,10.0
675,10.0
676,0.0
677,0.0
678,0.0
679,0.0
2,1, 1,21, 0, 7,20.00,30.00,WinterDesignDay
6,-16.6
7,-16.6
8,0.0008974771856968442
9,98886.0
227,14.995683792363238
260,14.99809851169376
293,15.009333513342512
294,0.0
295,0.0
296,0.0
297,11478.587163090582
298,0.0
299,0.0
300,2006783.8238225769
352,2004297.7501746498
354,3002679.8587525726
356,0.0
522,0.0
544,0.0
566,6.67
567,6.67
568,0.0
569,0.0
581,10.0
582,10.0
583,0.0
584,0.0
586,0.0
588,6.67
589,6.67
590,0.0
591,0.0
593,10.0
594,10.0
595,0.0
658,10.0
659,10.0
660,0.0
661,0.0
662,0.0
663,0.0
674,10.0
675,10.0
676,0.0
677,0.0
678,0.0
679,0.0
2,1, 1,21, 0, 7,30.00,40.00,WinterDesignDay
6,-16.6
7,-16.6
8,0.0008974771856968442
9,98886.0
227,15.006934663312873
260,15.004612836068548
293,15.004474357035673
294,0.0
295,0.0
296,0.0
297,11516.27577711102
298,0.0
299,0.0
300,2015768.7398693315
352,2012471.9122984964
354,3002617.2243607116
356,0.0
522,0.0
544,0.0
566,6.67
567,6.67
568,0.0
569,0.0
581,10.0
582,10.0
583,0.0
584,0.0
586,0.0
588,6.67
589,6.67
590,0.0
591,0.0
593,10.0
594,10.0
595,0.0
658,10.0
659,10.0
660,0.0
661,0.0
662,0.0
663,0.0
674,10.0
675,10.0
676,0.0
677,0.0
678,0.0
679,0.0
2,1, 1,21, 0, 7,40.00,50.00,WinterDesignDay
6,-16.6
7,-16.6
8,0.0008974771856968442
9,98886.0
227,15.007769408151086
260,15.006686579823075
293,14.99971418796915
294,0.0
295,0.0
296,0.0
297,11519.417027915384
298,0.0
299,0.0
300,2015587.686547974
352,2012291.4557504245
354,3002351.103368059
356,0.0
522,0.0
544,0.0
566,6.67
567,6.67
568,0.0
569,0.0
581,10.0
582,10.0
583,0.0
584,0.0
586,0.0
588,6.67
589,6.67
590,0.0
591,0.0
593,10.0
594,10.0
595,0.0
658,10.0
659,10.0
660,0.0
661,0.0
662,0.0
663,0.0
674,10.0
675,10.0
676,0.0
677,0.0
678,0.0
679,0.0
2,1, 1,21, 0, 7,50.00,60.00,WinterDesignDay
6,-16.6
7,-16.6
8,0.0008974771856968442
9,98886.0
227,15.00163625712192
260,15.002219341995048
293,14.994896100837382
294,0.0
295,0.0
296,0.0
297,11522.046524608995
298,0.0
299,0.0
300,2015625.301634142
352,2012329.0662547702
354,3002406.3385345137
356,0.0
522,0.0
544,0.0
566,6.67
567,6.67
568,0.0
569,0.0
581,10.0
582,10.0
583,0.0
584,0.0
586,0.0
588,6.67
589,6.67
590,0.0
591,0.0
593,10.0
594,10.0
595,0.0
658,10.0
659,10.0
660,0.0
661,0.0
662,0.0
663,0.0
674,10.0
675,10.0
676,0.0
677,0.0
678,0.0
679,0.0
2,1, 1,21, 0, 8, 0.00,10.00,WinterDesignDay
6,-16.6
7,-16.6
8,0.0008974771856968442
9,98886.0
227,19.56370338892154
260,19.56674846976102
293,19.247356797236255
294,0.0
295,0.0
296,0.0
297,39859.14763884354
298,0.0
299,0.0
300,3876048.287117546
352,3417304.7524209807
354,5151549.864196314
356,0.0
522,0.0
544,0.0
566,6.669999999999999
567,6.669999999999999
568,0.0
569,0.0
581,10.0
582,10.0
583,0.0
584,0.0
586,0.0
588,6.669999999999999
589,6.669999999999999
590,0.0
591,0.0
593,10.0
594,10.0
595,0.0
658,10.0
659,10.0
660,0.0
661,0.0
662,0.0
663,0.0
674,10.0
675,10.0
676,0.0
677,0.0
678,0.0
679,0.0
2,1, 1,21, 0, 8,10.00,20.00,WinterDesignDay
6,-16.6
7,-16.6
8,0.0008974771856968442
9,98886.0
227,19.951718379520388
260,19.9614032121725
293,19.94108248248702
294,0.0
295,0.0
296,0.0
297,28206.025834781693
298,0.0
299,0.0
300,3688863.263133779
352,3286734.271542254
354,5179058.293758731
356,0.0
522,0.0
544,0.0
566,6.669999999999996
567,6.669999999999996
568,0.0
569,0.0
581,9.999999999999997
582,9.999999999999997
583,0.0
584,0.0
586,0.0
588,6.669999999999996
589,6.669999999999996
590,0.0
591,0.0
593,9.999999999999997
594,9.999999999999997
595,0.0
658,9.999999999999997
659,9.999999999999997
660,0.0
661,0.0
662,0.0
663,0.0
674,9.999999999999997
675,9.999999999999997
676,0.0
677,0.0
678,0.0
679,0.0
2,1, 1,21, 0, 8,20.00,30.00,WinterDesignDay
6,-16.6
7,-16.6
8,0.0008974771856968442
9,98886.0
227,19.997520482652808
260,20.002525936612277
293,20.00590938664633
294,0.0
295,0.0
296,0.0
297,20796.12265164399
298,0.0
299,0.0
300,3570131.81163528
352,3162384.2883190957
354,4899560.715743199
356,0.0
522,0.0
544,0.0
566,6.67
567,6.67
568,0.0
569,0.0
581,10.0
582,10.0
583,0.0
584,0.0
586,0.0
588,6.67
589,6.67
590,0.0
591,0.0
593,10.0
594,10.0
595,0.0
658,10.0
659,10.0
660,0.0
661,0.0
662,0.0
663,0.0
674,10.0
675,10.0
676,0.0
677,0.0
678,0.0
679,0.0
2,1, 1,21, 0, 8,30.00,40.00,WinterDesignDay
6,-16.6
7,-16.6
8,0.0008974771856968442
9,98886.0
227,20.006262674789185
260,20.00140692173742
293,19.991484751668609
294,0.0
295,0.0
296,0.0
297,18346.777938734107
298,0.0
299,0.0
300,3391291.8776222665
352,2967382.152680009
354,4702903.78691225
356,0.0
522,0.0
544,0.0
566,6.670000000000003
567,6.670000000000003
568,0.0
569,0.0
581,10.000000000000004
582,10.000000000000004
583,0.0
584,0.0
586,0.0
588,6.670000000000003
589,6.670000000000003
590,0.0
591,0.0
593,10.000000000000004
594,10.000000000000004
595,0.0
658,10.000000000000004
659,10.000000000000004
660,0.0
661,0.0
662,0.0
663,0.0
674,10.000000000000004
675,10.000000000000004
676,0.0
677,0.0
678,0.0
679,0.0
2,1, 1,21, 0, 8,40.00,50.00,WinterDesignDay
6,-16.6
7,-16.6
8,0.0008974771856968442
9,98886.0
227,19.990443831469258
260,20.002619980047905
293,19.999153308158314
294,0.0
295,0.0
296,0.0
297,17713.315561471954
298,0.0
299,0.0
300,3335324.8977942934
352,2918552.962820086
354,4640188.619256835
356,0.0
522,0.0
544,0.0
566,6.67
567,6.67
568,0.0
569,0.0