Program Version,EnergyPlus, Version 8.6.0-198c6a3cff, YMD=2016.11.21 15:05
1,5,Environment Title[],Latitude[deg],Longitude[deg],Time Zone[],Elevation[m]
2,6,Day of Simulation[],Month[],Day of Month[],DST Indicator[1=yes 0=no],Hour[],StartMinute[],EndMinute[],DayType
3,3,Cumulative Day of Simulation[],Month[],Day of Month[],DST Indicator[1=yes 0=no],DayType  ! When Daily Report Variables Requested
4,2,Cumulative Days of Simulation[],Month[]  ! When Monthly Report Variables Requested
5,1,Cumulative Days of Simulation[] ! When Run Period Report Variables Requested
6,1,Environment,Site Outdoor Air Drybulb Temperature [C] !TimeStep
7,1,Environment,Site Outdoor Air Wetbulb Temperature [C] !TimeStep
8,1,Environment,Site Outdoor Air Humidity Ratio [kgWater/kgDryAir] !TimeStep
9,1,Environment,Site Outdoor Air Barometric Pressure [Pa] !TimeStep
227,1,WEST ZONE,Zone Air Temperature [C] !TimeStep
260,1,EAST ZONE,Zone Air Temperature [C] !TimeStep
293,1,NORTH ZONE,Zone Air Temperature [C] !TimeStep
294,1,CHILLED WATER LOOP,Plant Supply Side Cooling Demand Rate [W] !TimeStep
295,1,CHILLED WATER LOOP,Plant Supply Side Heating Demand Rate [W] !TimeStep
296,1,HOT WATER LOOP,Plant Supply Side Cooling Demand Rate [W] !TimeStep
297,1,HOT WATER LOOP,Plant Supply Side Heating Demand Rate [W] !TimeStep
298,1,CHILLED WATER CONDENSER LOOP,Plant Supply Side Cooling Demand Rate [W] !TimeStep
299,1,CHILLED WATER CONDENSER LOOP,Plant Supply Side Heating Demand Rate [W] !TimeStep
300,1,REHEAT COIL ZONE 1,Heating Coil Heating Energy [J] !TimeStep
352,1,REHEAT COIL ZONE 2,Heating Coil Heating Energy [J] !TimeStep
354,1,REHEAT COIL ZONE 3,Heating Coil Heating Energy [J] !TimeStep
356,1,DETAILED COOLING COIL,Cooling Coil Total Cooling Energy [J] !TimeStep
522,1,LITTLE CHILLER,Chiller Electric Power [W] !TimeStep
544,1,LITTLE CHILLER,Chiller Evaporator Cooling Rate [W] !TimeStep
566,1,LITTLE CHILLER,Chiller Evaporator Inlet Temperature [C] !TimeStep
567,1,LITTLE CHILLER,Chiller Evaporator Outlet Temperature [C] !TimeStep
568,1,LITTLE CHILLER,Chiller Evaporator Mass Flow Rate [kg/s] !TimeStep
569,1,LITTLE CHILLER,Chiller Condenser Heat Transfer Rate [W] !TimeStep
581,1,LITTLE CHILLER,Chiller Condenser Inlet Temperature [C] !TimeStep
582,1,LITTLE CHILLER,Chiller Condenser Outlet Temperature [C] !TimeStep
583,1,LITTLE CHILLER,Chiller Condenser Mass Flow Rate [kg/s] !TimeStep
584,1,BIG CHILLER,Chiller Electric Power [W] !TimeStep
586,1,BIG CHILLER,Chiller Evaporator Cooling Rate [W] !TimeStep
588,1,BIG CHILLER,Chiller Evaporator Inlet Temperature [C] !TimeStep
589,1,BIG CHILLER,Chiller Evaporator Outlet Temperature [C] !TimeStep
590,1,BIG CHILLER,Chiller Evaporator Mass Flow Rate [kg/s] !TimeStep
591,1,BIG CHILLER,Chiller Condenser Heat Transfer Rate [W] !TimeStep
593,1,BIG CHILLER,Chiller Condenser Inlet Temperature [C] !TimeStep
594,1,BIG CHILLER,Chiller Condenser Outlet Temperature [C] !TimeStep
595,1,BIG CHILLER,Chiller Condenser Mass Flow Rate [kg/s] !TimeStep
658,1,BIG TOWER1,Cooling Tower Inlet Temperature [C] !TimeStep
659,1,BIG TOWER1,Cooling Tower Outlet Temperature [C] !TimeStep
660,1,BIG TOWER1,Cooling Tower Mass Flow Rate [kg/s] !TimeStep
661,1,BIG TOWER1,Cooling Tower Heat Transfer Rate [W] !TimeStep
662,1,BIG TOWER1,Cooling Tower Fan Electric Power [W] !TimeStep
663,1,BIG TOWER1,Cooling Tower Fan Electric Energy [J] !TimeStep
674,1,BIG TOWER2,Cooling Tower Inlet Temperature [C] !TimeStep
675,1,BIG TOWER2,Cooling Tower Outlet Temperature [C] !TimeStep
676,1,BIG TOWER2,Cooling Tower Mass Flow Rate [kg/s] !TimeStep
677,1,BIG TOWER2,Cooling Tower Heat Transfer Rate [W] !TimeStep
678,1,BIG TOWER2,Cooling Tower Fan Electric Power [W] !TimeStep
679,1,BIG TOWER2,Cooling Tower Fan Electric Energy [J] !TimeStep
End of Data Dictionary
1,CHICAGO OHARE INTL AP ANN HTG 99% CONDNS DB,  41.98, -87.92,  -6.00, 201.00
2,1, 1,21, 0, 1, 0.00,10.00,WinterDesignDay
6,-16.6
7,-16.6
8,0.0008974771856968442
9,98886.0
227,15.006785051867454
260,14.993513538088294
293,14.998255064642516
294,0.0
295,0.0
296,0.0
297,10922.224041125175
298,0.0
299,0.0
300,1843390.217231565
352,1905485.7050172589
354,2804747.173066688
356,0.0
522,0.0
544,0.0
566,6.67
567,6.67
568,0.0
569,0.0
581,10.0
582,10.0
583,0.0
584,0.0
586,0.0
588,6.67
589,6.67
590,0.0
591,0.0
593,10.0
594,10.0
595,0.0
658,10.0
659,10.0
660,0.0
661,0.0
662,0.0
663,0.0
674,10.0
675,10.0
676,0.0
677,0.0
678,0.0
679,0.0
2,1, 1,21, 0, 1,10.00,20.00,WinterDesignDay
6,-16.6
7,-16.6
8,0.0008974771856968442
9,98886.0
227,14.998880565229186
260,15.000707183859785
293,14.997988277029747
294,0.0
295,0.0
296,0.0
297,10983.22139344741
298,0.0
299,0.0
300,1843540.9875619296
352,1922656.7885203749
354,2820080.964713335
356,0.0
522,0.0
544,0.0
566,6.67
567,6.67
568,0.0
569,0.0
581,10.0
582,10.0
583,0.0
584,0.0
586,0.0
588,6.67
589,6.67
590,0.0
591,0.0
593,10.0
594,10.0
595,0.0
658,10.0
659,10.0
660,0.0
661,0.0
662,0.0
663,0.0
674,10.0
675,10.0
676,0.0
677,0.0
678,0.0
679,0.0
2,1, 1,21, 0, 1,20.00,30.00,WinterDesignDay
6,-16.6
7,-16.6
8,0.0008974771856968442
9,98886.0
227,14.997601231121003
260,14.996731975969589
293,15.0053192252885
294,0.0
295,0.0
296,0.0
297,11027.581778483003
298,0.0
299,0.0
300,1853158.0361712268
352,1922697.4589995258
354,2835169.1266812768
356,0.0
522,0.0
544,0.0
566,6.67
567,6.67
568,0.0
569,0.0
581,10.0
582,10.0
583,0.0
584,0.0
586,0.0
588,6.67
589,6.67
590,0.0
591,0.0
593,10.0
594,10.0
595,0.0
658,10.0
659,10.0
660,0.0
661,0.0
662,0.0
663,0.0
674,10.0
675,10.0
676,0.0
677,0.0
678,0.0
679,0.0
2,1, 1,21, 0, 1,30.00,40.00,WinterDesignDay
6,-16.6
7,-16.6
8,0.0008974771856968442
9,98886.0
227,15.003419180478119
260,15.006127472767302
293,14.999786375527436
294,0.0
295,0.0
296,0.0
297,11055.649917533365
298,0.0
299,0.0
300,1862654.3039208204
352,1939530.2761232439
354,2835102.2190231645
356,0.0
522,0.0
544,0.0
566,6.67
567,6.67
568,0.0
569,0.0
581,10.0
582,10.0
583,0.0
584,0.0
586,0.0
588,6.67
589,6.67
590,0.0
591,0.0
593,10.0
594,10.0
595,0.0
658,10.0
659,10.0
660,0.0
661,0.0
662,0.0
663,0.0
674,10.0
675,10.0
676,0.0
677,0.0
678,0.0
679,0.0
2,1, 1,21, 0, 1,40.00,50.00,WinterDesignDay
6,-16.6
7,-16.6
8,0.0008974771856968442
9,98886.0
227,14.998911609463568
260,15.003608212894584
293,15.00120244063263
294,0.0
295,0.0
296,0.0
297,11082.876965518271
298,0.0
299,0.0
300,1862543.4219404744
352,1939414.963424893
354,2849885.9827840558
356,0.0
522,0.0
544,0.0
566,6.67
567,6.67
568,0.0
569,0.0
581,10.0
582,10.0
583,0.0
584,0.0
586,0.0
588,6.67
589,6.67
590,0.0
591,0.0
593,10.0
594,10.0
595,0.0
658,10.0
659,10.0
660,0.0
661,0.0
662,0.0
663,0.0
674,10.0
675,10.0
676,0.0
677,0.0
678,0.0
679,0.0
2,1, 1,21, 0, 1,50.00,60.00,WinterDesignDay
6,-16.6
7,-16.6
8,0.0008974771856968442
9,98886.0
227,14.998833085078829
260,15.001468612534956
293,14.994848957555586
294,0.0
295,0.0
296,0.0
297,11095.563377805254
298,0.0
299,0.0
300,1872121.3548156019
352,1947880.9280226543
354,2849998.281227687
356,0.0
522,0.0
544,0.0
566,6.67
567,6.67
568,0.0
569,0.0
581,10.0
582,10.0
583,0.0
584,0.0
586,0.0
588,6.67
589,6.67
590,0.0
591,0.0
593,10.0
594,10.0
595,0.0
658,10.0
659,10.0
660,0.0
661,0.0
662,0.0
663,0.0
674,10.0
675,10.0
676,0.0
677,0.0
678,0.0
679,0.0
2,1, 1,21, 0, 2, 0.00,10.00,WinterDesignDay
6,-16.6
7,-16.6
8,0.0008974771856968442
9,98886.0
227,15.003362523793318
260,15.003440567944019
293,14.996026822372386
294,0.0
295,0.0
296,0.0
297,11158.722430751544
298,0.0
299,0.0
300,1881709.0202613606
352,1956361.4727966968
354,2865053.3972678075
356,0.0
522,0.0
544,0.0
566,6.67
567,6.67
568,0.0
569,0.0
581,10.0
582,10.0
583,0.0
584,0.0
586,0.0
588,6.67
589,6.67
590,0.0
591,0.0
593,10.0
594,10.0
595,0.0
658,10.0
659,10.0
660,0.0
661,0.0
662,0.0
663,0.0
674,10.0
675,10.0
676,0.0
677,0.0
678,0.0
679,0.0
2,1, 1,21, 0, 2,10.00,20.00,WinterDesignDay
6,-16.6
7,-16.6
8,0.0008974771856968442
9,98886.0
227,14.998690108534099
260,14.99693424412945
293,15.005368626167062
294,0.0
295,0.0
296,0.0
297,11185.887723140677
298,0.0
299,0.0
300,1881600.9898899317
352,1956249.2951534393
354,2879688.5516311295
356,0.0
522,0.0
544,0.0
566,6.67
567,6.67
568,0.0
569,0.0
581,10.0
582,10.0
583,0.0
584,0.0
586,0.0
588,6.67
589,6.67
590,0.0
591,0.0
593,10.0
594,10.0
595,0.0
658,10.0
659,10.0
660,0.0
661,0.0
662,0.0
663,0.0
674,10.0
675,10.0
676,0.0
677,0.0
678,0.0
679,0.0
2,1, 1,21, 0, 2,20.00,30.00,WinterDesignDay
6,-16.6
7,-16.6
8,0.0008974771856968442
9,98886.0
227,14.999965510933177
260,14.996017572335811
293,15.00123406675521
294,0.0
295,0.0
296,0.0
297,11198.56456028821
298,0.0
299,0.0
300,1891036.2479801693
352,1964576.1150174905
354,2879695.6484965996
356,0.0
522,0.0
544,0.0
566,6.67
567,6.67
568,0.0
569,0.0
581,10.0
582,10.0
583,0.0
584,0.0
586,0.0
588,6.67
589,6.67
590,0.0
591,0.0
593,10.0
594,10.0
595,0.0
658,10.0
659,10.0
660,0.0
661,0.0
662,0.0
663,0.0
674,10.0
675,10.0
676,0.0
677,0.0
678,0.0
679,0.0
2,1, 1,21, 0, 2,30.00,40.00,WinterDesignDay
6,-16.6
7,-16.6
8,0.0008974771856968442
9,98886.0
227,15.006004906512388
260,15.000035067960465
293,15.00255560641354
294,0.0
295,0.0
296,0.0
297,11261.344595385614
298,0.0
299,0.0
300,1900484.4812179863
352,1972920.8298197985
354,2894498.1793502594
356,0.0
522,0.0
544,0.0
566,6.67
567,6.67
568,0.0
569,0.0
581,10.0
582,10.0
583,0.0
584,0.0
586,0.0
588,6.67
589,6.67
590,0.0
591,0.0
593,10.0
594,10.0
595,0.0
658,10.0
659,10.0
660,0.0
661,0.0
662,0.0
663,0.0
674,10.0
675,10.0
676,0.0
677,0.0
678,0.0
679,0.0
2,1, 1,21, 0, 2,40.00,50.00,WinterDesignDay
6,-16.6
7,-16.6
8,0.0008974771856968442
9,98886.0
227,15.002520046642252
260,14.994724578350042
293,14.998353082068583
294,0.0
295,0.0
296,0.0
297,11240.410274086784
298,0.0
299,0.0
300,1900326.7286012199
352,1972757.2619984518
354,2894261.238286608
356,0.0
522,0.0
544,0.0
566,6.67
567,6.67
568,0.0
569,0.0
581,10.0
582,10.0
583,0.0
584,0.0
586,0.0
588,6.67
589,6.67
590,0.0
591,0.0
593,10.0
594,10.0
595,0.0
658,10.0
659,10.0
660,0.0
661,0.0
662,0.0
663,0.0
674,10.0
675,10.0
676,0.0
677,0.0
678,0.0
679,0.0
2,1, 1,21, 0, 2,50.00,60.00,WinterDesignDay
6,-16.6
7,-16.6
8,0.0008974771856968442
9,98886.0
227,15.002853169116669
260,15.004252546648552
293,15.001062970087105
294,0.0
295,0.0
296,0.0
297,11320.522216816658
298,0.0
299,0.0
300,1909863.2514036652
352,1989421.680617081
354,2909175.242642536
356,0.0
522,0.0
544,0.0
566,6.67
567,6.67
568,0.0
569,0.0
581,10.0
582,10.0
583,0.0
584,0.0
586,0.0
588,6.67
589,6.67
590,0.0
591,0.0
593,10.0
594,10.0
595,0.0
658,10.0
659,10.0
660,0.0
661,0.0
662,0.0
663,0.0
674,10.0
675,10.0
676,0.0
677,0.0
678,0.0
679,0.0
2,1, 1,21, 0, 3, 0.00,10.00,WinterDesignDay
6,-16.6
7,-16.6
8,0.0008974771856968442
9,98886.0
227,14.998953856611785
260,15.003722419652246
293,14.997336923230426
294,0.0
295,0.0
296,0.0
297,11300.375133401372
298,0.0
299,0.0
300,1909706.2183664835
352,1989258.3206520656
354,2908939.3667083086
356,0.0
522,0.0
544,0.0
566,6.67
567,6.67
568,0.0
569,0.0
581,10.0
582,10.0
583,0.0
584,0.0
586,0.0
588,6.67
589,6.67
590,0.0
591,0.0
593,10.0
594,10.0
595,0.0
658,10.0
659,10.0
660,0.0
661,0.0
662,0.0
663,0.0
674,10.0
675,10.0
676,0.0
677,0.0
678,0.0
679,0.0
2,1, 1,21, 0, 3,10.00,20.00,WinterDesignDay
6,-16.6
7,-16.6
8,0.0008974771856968442
9,98886.0
227,15.000934373347244
260,15.003243638039983
293,15.000470634750851
294,0.0
295,0.0
296,0.0
297,11364.53311588198
298,0.0
299,0.0
300,1919151.2302147877
352,1997576.4695684436
354,2923695.0844816279
356,0.0
522,0.0
544,0.0
566,6.67
567,6.67
568,0.0
569,0.0
581,10.0
582,10.0
583,0.0
584,0.0
586,0.0
588,6.67
589,6.67
590,0.0
591,0.0
593,10.0
594,10.0
595,0.0
658,10.0
659,10.0
660,0.0
661,0.0
662,0.0
663,0.0
674,10.0
675,10.0
676,0.0
677,0.0
678,0.0
679,0.0
2,1, 1,21, 0, 3,20.00,30.00,WinterDesignDay
6,-16.6
7,-16.6
8,0.0008974771856968442
9,98886.0
227,14.99700947631049
260,15.007917587589877
293,14.99667255883345
294,0.0
295,0.0
296,0.0
297,11361.631258280202
298,0.0
299,0.0
300,1919078.7950846602
352,2005659.9700274696
354,2923586.2748161514
356,0.0
522,0.0
544,0.0
566,6.67
567,6.67
568,0.0
569,0.0
581,10.0
582,10.0
583,0.0
584,0.0
586,0.0
588,6.67
589,6.67
590,0.0
591,0.0
593,10.0
594,10.0
595,0.0
658,10.0
659,10.0
660,0.0
661,0.0
662,0.0
663,0.0
674,10.0
675,10.0
676,0.0
677,0.0
678,0.0
679,0.0
2,1, 1,21, 0, 3,30.00,40.00,WinterDesignDay
6,-16.6
7,-16.6
8,0.0008974771856968442
9,98886.0
227,14.999256898853688
260,15.002501242608842
293,15.00027971023979
294,0.0
295,0.0
296,0.0
297,11409.76844727726
298,0.0
299,0.0
300,1928429.6060461973
352,2005725.939117485
354,2938179.946871327
356,0.0
522,0.0
544,0.0
566,6.67
567,6.67
568,0.0
569,0.0
581,10.0
582,10.0
583,0.0
584,0.0
586,0.0
588,6.67
589,6.67
590,0.0
591,0.0
593,10.0
594,10.0
595,0.0
658,10.0
659,10.0
660,0.0
661,0.0
662,0.0
663,0.0
674,10.0
675,10.0
676,0.0
677,0.0
678,0.0
679,0.0
2,1, 1,21, 0, 3,40.00,50.00,WinterDesignDay
6,-16.6
7,-16.6
8,0.0008974771856968442
9,98886.0
227,15.006807533952914
260,15.002760513012918
293,14.996767169276268
294,0.0
295,0.0
296,0.0
297,11425.217579390894
298,0.0
299,0.0
300,1937655.766607785
352,2013825.756429936
354,2938140.6631234355
356,0.0
522,0.0
544,0.0
566,6.67
567,6.67
568,0.0
569,0.0
581,10.0
582,10.0
583,0.0
584,0.0
586,0.0
588,6.67
589,6.67
590,0.0
591,0.0
593,10.0
594,10.0
595,0.0
658,10.0
659,10.0
660,0.0
661,0.0
662,0.0
663,0.0
674,10.0
675,10.0
676,0.0
677,0.0
678,0.0
679,0.0
2,1, 1,21, 0, 3,50.00,60.00,WinterDesignDay
6,-16.6
7,-16.6
8,0.0008974771856968442
9,98886.0
227,15.00384804273547
260,15.009072139491366
293,15.001401699231872
294,0.0
295,0.0
296,0.0
297,11472.04999248206
298,0.0
299,0.0
300,1937590.518083029
352,2021852.979769319
354,2952468.0817549459
356,0.0
522,0.0
544,0.0
566,6.67
567,6.67
568,0.0
569,0.0
581,10.0
582,10.0
583,0.0
584,0.0
586,0.0
588,6.67
589,6.67
590,0.0
591,0.0
593,10.0
594,10.0
595,0.0
658,10.0
659,10.0
660,0.0
661,0.0
662,0.0
663,0.0
674,10.0
675,10.0
676,0.0
677,0.0
678,0.0
679,0.0
2,1, 1,21, 0, 4, 0.00,10.00,WinterDesignDay
6,-16.6
7,-16.6
8,0.0008974771856968442
9,98886.0
227,14.995843878482602
260,15.005460613621942
293,14.999108962478305
294,0.0
295,0.0
296,0.0
297,11453.883871263783
298,0.0
299,0.0
300,1937490.2663576343
352,2021748.5133207776
354,2952317.4721131145
356,0.0
522,0.0
544,0.0
566,6.67
567,6.67
568,0.0
569,0.0
581,10.0
582,10.0
583,0.0
584,0.0
586,0.0
588,6.67
589,6.67
590,0.0
591,0.0
593,10.0
594,10.0
595,0.0
658,10.0
659,10.0
660,0.0
661,0.0
662,0.0
663,0.0
674,10.0
675,10.0
676,0.0
677,0.0
678,0.0
679,0.0
2,1, 1,21, 0, 4,10.00,20.00,WinterDesignDay
6,-16.6
7,-16.6
8,0.0008974771856968442
9,98886.0
227,14.997413081972184
260,14.994000676921563
293,15.00262095069598
294,0.0
295,0.0
296,0.0
297,11502.909479358324
298,0.0
299,0.0
300,1946908.9962145568
352,2021958.155563335
354,2966972.9534110839
356,0.0
522,0.0
544,0.0
566,6.67
567,6.67
568,0.0
569,0.0
581,10.0
582,10.0
583,0.0
584,0.0
586,0.0
588,6.67
589,6.67
590,0.0
591,0.0
593,10.0
594,10.0
595,0.0
658,10.0
659,10.0
660,0.0
661,0.0
662,0.0
663,0.0
674,10.0
675,10.0
676,0.0
677,0.0
678,0.0
679,0.0
2,1, 1,21, 0, 4,20.00,30.00,WinterDesignDay
6,-16.6
7,-16.6
8,0.0008974771856968442
9,98886.0
227,15.005025381370349
260,15.004827173592707
293,14.998759839990264
294,0.0
295,0.0
296,0.0
297,11535.445489840291
298,0.0
299,0.0
300,1956149.302139923
352,2038114.1673632833
354,2967058.8802570479
356,0.0
522,0.0
544,0.0
566,6.67
567,6.67
568,0.0
569,0.0
581,10.0
582,10.0
583,0.0
584,0.0
586,0.0
588,6.67
589,6.67
590,0.0
591,0.0
593,10.0
594,10.0
595,0.0
658,10.0
659,10.0
660,0.0
661,0.0
662,0.0
663,0.0
674,10.0
675,10.0
676,0.0
677,0.0
678,0.0
679,0.0
2,1, 1,21, 0, 4,30.00,40.00,WinterDesignDay
6,-16.6
7,-16.6
8,0.0008974771856968442
9,98886.0
227,15.00348084286834
260,15.007520598060076
293,15.004496641094859
294,0.0
295,0.0
296,0.0
297,11566.44628116859
298,0.0
299,0.0
300,1955962.1052724377
352,2037919.391510766
354,2981059.4445117686
356,0.0
522,0.0
544,0.0
566,6.67
567,6.67
568,0.0
569,0.0
581,10.0
582,10.0
583,0.0
584,0.0
586,0.0
588,6.67
589,6.67
590,0.0
591,0.0
593,10.0
594,10.0
595,0.0
658,10.0
659,10.0
660,0.0
661,0.0
662,0.0
663,0.0
674,10.0
675,10.0
676,0.0
677,0.0
678,0.0
679,0.0
2,1, 1,21, 0, 4,40.00,50.00,WinterDesignDay
6,-16.6
7,-16.6
8,0.0008974771856968442
9,98886.0
227,14.996419298934104
260,14.999462868361692
293,15.003359591028678
294,0.0
295,0.0
296,0.0
297,11549.212356846085
298,0.0
299,0.0
300,1955864.8786545515
352,2037818.2284827086
354,2980913.369490874
356,0.0
522,0.0
544,0.0
566,6.67
567,6.67
568,0.0
569,0.0
581,10.0
582,10.0
583,0.0
584,0.0
586,0.0
588,6.67
589,6.67
590,0.0
591,0.0
593,10.0
594,10.0
595,0.0
658,10.0
659,10.0
660,0.0
661,0.0
662,0.0
663,0.0
674,10.0
675,10.0
676,0.0
677,0.0
678,0.0
679,0.0
2,1, 1,21, 0, 4,50.00,60.00,WinterDesignDay
6,-16.6
7,-16.6
8,0.0008974771856968442
9,98886.0
227,14.998209620959008
260,14.998755744450893
293,15.00736928139163
294,0.0
295,0.0
296,0.0
297,11614.644423276253
298,0.0
299,0.0
300,1965236.6075002107
352,2046051.8865137625
354,2995459.1363138926
356,0.0
522,0.0
544,0.0
566,6.67
567,6.67
568,0.0
569,0.0
581,10.0
582,10.0
583,0.0
584,0.0
586,0.0
588,6.67
589,6.67
590,0.0
591,0.0
593,10.0
594,10.0
595,0.0
658,10.0
659,10.0
660,0.0
661,0.0
662,0.0
663,0.0
674,10.0
675,10.0
676,0.0
677,0.0
678,0.0
679,0.0
2,1, 1,21, 0, 5, 0.00,10.00,WinterDesignDay
6,-16.6
7,-16.6
8,0.0008974771856968442
9,98886.0
227,15.007271751464732
260,15.00598823931273
293,15.00487720080018
294,0.0
295,0.0
296,0.0
297,11631.131510806814
298,0.0
299,0.0
300,1974268.2677894922
352,2053936.486567452
354,2995335.7814322055
356,0.0
522,0.0
544,0.0
566,6.67
567,6.67
568,0.0
569,0.0
581,10.0
582,10.0
583,0.0
584,0.0
586,0.0
588,6.67
589,6.67
590,0.0
591,0.0
593,10.0
594,10.0
595,0.0
658,10.0
659,10.0
660,0.0
661,0.0
662,0.0
663,0.0
674,10.0
675,10.0
676,0.0
677,0.0
678,0.0
679,0.0
2,1, 1,21, 0, 5,10.00,20.00,WinterDesignDay
6,-16.6
7,-16.6
8,0.0008974771856968442
9,98886.0
227,15.006764615608958
260,15.004322731713684
293,14.99789777362817
294,0.0
295,0.0
296,0.0
297,11615.807104523934
298,0.0
299,0.0
300,1974078.3364972694
352,2053739.1534124804
354,2995051.6985071145
356,0.0
522,0.0
544,0.0
566,6.67
567,6.67
568,0.0
569,0.0
581,10.0
582,10.0
583,0.0
584,0.0
586,0.0
588,6.67
589,6.67
590,0.0
591,0.0
593,10.0
594,10.0
595,0.0
658,10.0
659,10.0
660,0.0
661,0.0
662,0.0
663,0.0
674,10.0
675,10.0
676,0.0
677,0.0
678,0.0
679,0.0
2,1, 1,21, 0, 5,20.00,30.00,WinterDesignDay
6,-16.6
7,-16.6
8,0.0008974771856968442
9,98886.0
227,14.998231172684254
260,14.994759104005614
293,15.002635561485505
294,0.0
295,0.0
296,0.0
297,11649.239382690714
298,0.0
299,0.0
300,1974215.7645615375
352,2053881.9372284476
354,3009395.9337056025
356,0.0
522,0.0
544,0.0
566,6.67
567,6.67
568,0.0
569,0.0
581,10.0
582,10.0
583,0.0
584,0.0
586,0.0
588,6.67
589,6.67
590,0.0
591,0.0
593,10.0
594,10.0
595,0.0
658,10.0
659,10.0
660,0.0
661,0.0
662,0.0
663,0.0
674,10.0
675,10.0
676,0.0
677,0.0
678,0.0
679,0.0
2,1, 1,21, 0, 5,30.00,40.00,WinterDesignDay
6,-16.6
7,-16.6
8,0.0008974771856968442
9,98886.0
227,14.999958366100849
260,15.005696202499509
293,15.000345979720177
294,0.0
295,0.0
296,0.0
297,11683.731768017278
298,0.0
299,0.0
300,1983470.485616114
352,2069911.9080534334
354,3009657.9979356254
356,0.0
522,0.0
544,0.0
566,6.67
567,6.67
568,0.0
569,0.0
581,10.0
582,10.0
583,0.0
584,0.0
586,0.0
588,6.67
589,6.67
590,0.0
591,0.0
593,10.0
594,10.0
595,0.0
658,10.0
659,10.0
660,0.0
661,0.0
662,0.0
663,0.0
674,10.0
675,10.0
676,0.0
677,0.0
678,0.0
679,0.0
2,1, 1,21, 0, 5,40.00,50.00,WinterDesignDay
6,-16.6
7,-16.6
8,0.0008974771856968442
9,98886.0
227,14.998886369742785
260,15.008408347597103
293,15.00635135852446
294,0.0
295,0.0
296,0.0
297,11716.444956345116
298,0.0
299,0.0
300,1983347.368291234
352,2069783.6088299712
354,3023542.889221834
356,0.0
522,0.0
544,0.0
566,6.67
567,6.67
568,0.0
569,0.0
581,10.0
582,10.0
583,0.0
584,0.0
586,0.0
588,6.67
589,6.67
590,0.0
591,0.0
593,10.0
594,10.0
595,0.0
658,10.0
659,10.0
660,0.0
661,0.0
662,0.0
663,0.0
674,10.0
675,10.0
676,0.0
677,0.0
678,0.0
679,0.0
2,1, 1,21, 0, 5,50.00,60.00,WinterDesignDay
6,-16.6
7,-16.6
8,0.0008974771856968442
9,98886.0
227,15.004755636721387
260,15.001330680009467
293,15.005803349139484
294,0.0
295,0.0
296,0.0
297,11718.361421083324
298,0.0
299,0.0
300,1992282.3984093639
352,2069668.5116690442
354,3023376.940721468
356,0.0
522,0.0
544,0.0
566,6.67
567,6.67
568,0.0
569,0.0
581,10.0
582,10.0
583,0.0
584,0.0
586,0.0
588,6.67
589,6.67
590,0.0
591,0.0
593,10.0
594,10.0
595,0.0
658,10.0
659,10.0
660,0.0
661,0.0
662,0.0
663,0.0
674,10.0
675,10.0
676,0.0
677,0.0
678,0.0
679,0.0
2,1, 1,21, 0, 6, 0.00,10.00,WinterDesignDay
6,-16.6
7,-16.6
8,0.0008974771856968442
9,98886.0
227,15.00289777354525
260,14.992537306286307
293,14.998486377279225
294,0.0
295,0.0
296,0.0
297,11704.871182195871
298,0.0
299,0.0
300,1992283.9797684737
352,2069670.1523177888
354,3023379.306231051
356,0.0
522,0.0
544,0.0
566,6.67
567,6.67
568,0.0
569,0.0
581,10.0
582,10.0
583,0.0
584,0.0
586,0.0
588,6.67
589,6.67
590,0.0
591,0.0
593,10.0
594,10.0
595,0.0
658,10.0
659,10.0
660,0.0
661,0.0
662,0.0
663,0.0
674,10.0
675,10.0
676,0.0
677,0.0
678,0.0
679,0.0
2,1, 1,21, 0, 6,10.00,20.00,WinterDesignDay
6,-16.6
7,-16.6
8,0.0008974771856968442
9,98886.0
227,14.99387220150092
260,15.004723384886204
293,15.00230239667304
294,0.0
295,0.0
296,0.0
297,11771.325864051585
298,0.0
299,0.0
300,1992535.7404928667
352,2085658.681714148
354,3037756.514368796
356,0.0
522,0.0
544,0.0
566,6.67
567,6.67
568,0.0
569,0.0
581,10.0
582,10.0
583,0.0
584,0.0
586,0.0
588,6.67
589,6.67
590,0.0
591,0.0
593,10.0
594,10.0
595,0.0
658,10.0
659,10.0
660,0.0
661,0.0
662,0.0
663,0.0
674,10.0
675,10.0
676,0.0
677,0.0
678,0.0
679,0.0
2,1, 1,21, 0, 6,20.00,30.00,WinterDesignDay
6,-16.6
7,-16.6
8,0.0008974771856968442
9,98886.0
227,14.997849393241934
260,15.007454603057555
293,15.001726693910259
294,0.0
295,0.0
296,0.0
297,11774.425838707377
298,0.0
299,0.0
300,2001483.219631427
352,2085590.4711816714
354,3037658.4539501054
356,0.0
522,0.0
544,0.0
566,6.67
567,6.67
568,0.0
569,0.0
581,10.0
582,10.0
583,0.0
584,0.0
586,0.0
588,6.67
589,6.67
590,0.0
591,0.0
593,10.0
594,10.0
595,0.0
658,10.0
659,10.0
660,0.0
661,0.0
662,0.0
663,0.0
674,10.0
675,10.0
676,0.0
677,0.0
678,0.0
679,0.0
2,1, 1,21, 0, 6,30.00,40.00,WinterDesignDay
6,-16.6
7,-16.6
8,0.0008974771856968442
9,98886.0
227,14.997861162626938
260,15.000317897271872
293,14.995465160245573
294,0.0
295,0.0
296,0.0
297,11761.994170210794
298,0.0
299,0.0
300,2001395.9095624933
352,2085499.6194901844
354,3037527.8441249306
356,0.0
522,0.0
544,0.0
566,6.67
567,6.67
568,0.0
569,0.0
581,10.0
582,10.0
583,0.0
584,0.0
586,0.0
588,6.67
589,6.67
590,0.0
591,0.0
593,10.0
594,10.0
595,0.0
658,10.0
659,10.0
660,0.0
661,0.0
662,0.0
663,0.0
674,10.0
675,10.0
676,0.0
677,0.0
678,0.0
679,0.0
2,1, 1,21, 0, 6,40.00,50.00,WinterDesignDay
6,-16.6
7,-16.6
8,0.0008974771856968442
9,98886.0
227,15.001449489196494
260,15.001306648384502
293,15.000245720116429
294,0.0
295,0.0
296,0.0
297,11830.388812743055
298,0.0
299,0.0
300,2010561.9482279777
352,2093512.05586016
354,3051738.423499632
356,0.0
522,0.0
544,0.0
566,6.67
567,6.67
568,0.0
569,0.0
581,10.0
582,10.0
583,0.0
584,0.0
586,0.0
588,6.67
589,6.67
590,0.0
591,0.0
593,10.0
594,10.0
595,0.0
658,10.0
659,10.0
660,0.0
661,0.0
662,0.0
663,0.0
674,10.0
675,10.0
676,0.0
677,0.0
678,0.0
679,0.0
2,1, 1,21, 0, 6,50.00,60.00,WinterDesignDay
6,-16.6
7,-16.6
8,0.0008974771856968442
9,98886.0
227,15.000069155930604
260,14.999821259692997
293,15.000569393818842
294,0.0
295,0.0
296,0.0
297,11817.04773517989
298,0.0
299,0.0
300,2010416.270022394
352,2093360.5775043634
354,3051520.491405641
356,0.0
522,0.0
544,0.0
566,6.67
567,6.67
568,0.0
569,0.0
581,10.0
582,10.0
583,0.0
584,0.0
586,0.0
588,6.67
589,6.67
590,0.0
591,0.0
593,10.0
594,10.0
595,0.0
658,10.0
659,10.0
660,0.0
661,0.0
662,0.0
663,0.0
674,10.0
675,10.0
676,0.0
677,0.0
678,0.0
679,0.0
2,1, 1,21, 0, 7, 0.00,10.00,WinterDesignDay
6,-16.6
7,-16.6
8,0.0008974771856968442
9,98886.0
227,14.999998331413526
260,15.003642404828426
293,15.004898352953953
294,0.0
295,0.0
296,0.0
297,11431.226905608157
298,0.0
299,0.0
300,2001471.9491359434
352,2005713.9158859929
354,2995432.530152391
356,0.0
522,0.0
544,0.0
566,6.67
567,6.67
568,0.0
569,0.0
581,10.0
582,10.0
583,0.0
584,0.0
586,0.0
588,6.67
589,6.67
590,0.0
591,0.0
593,10.0
594,10.0
595,0.0
658,10.0
659,10.0
660,0.0
661,0.0
662,0.0
663,0.0
674,10.0
675,10.0
676,0.0
677,0.0
678,0.0
679,0.0
2,1, 1,21, 0, 7,10.00,20.00,WinterDesignDay
6,-16.6
7,-16.6
8,0.0008974771856968442
9,98886.0
227,15.008591025745052
260,15.004849409687348
293,15.004910041071444
294,0.0
295,0.0
296,0.0
297,11457.050986979964
298,0.0
299,0.0
300,2010337.9623186396
352,2005601.225092194
354,2995265.817548326
356,0.0
522,0.0
544,0.0
566,6.67
567,6.67
568,0.0
569,0.0
581,10.0
582,10.0
583,0.0
584,0.0
586,0.0
588,6.67
589,6.67
590,0.0
591,0.0
593,10.0
594,10.0
595,0.0
658,10.0
659,10.0
660,0.0
661,0.0
662,0.0
663,0.0
674,10.0
675,10.0
676,0.0
677,0.0
678,0.0
679,0.0
2,1, 1,21, 0, 7,20.00,30.00,WinterDesignDay
6,-16.6
7,-16.6
8,0.0008974771856968442
9,98886.0
227,15.009541515133865
260,15.002525171878763
293,15.001080792614499
294,0.0
295,0.0
296,0.0
297,11464.039256458473
298,0.0
299,0.0
300,2010187.6277275587
352,2005451.7397660404
354,2995044.6841413548
356,0.0
522,0.0
544,0.0
566,6.67
567,6.67
568,0.0
569,0.0
581,10.0
582,10.0
583,0.0
584,0.0
586,0.0
588,6.67
589,6.67
590,0.0
591,0.0
593,10.0
594,10.0
595,0.0
658,10.0
659,10.0
660,0.0
661,0.0
662,0.0
663,0.0
674,10.0
675,10.0
676,0.0
677,0.0
678,0.0
679,0.0
2,1, 1,21, 0, 7,30.00,40.00,WinterDesignDay
6,-16.6
7,-16.6
8,0.0008974771856968442
9,98886.0
227,15.003390185991508
260,14.997798328330111
293,14.99533729425694
294,0.0
295,0.0
296,0.0
297,11469.987795126563
298,0.0
299,0.0
300,2010262.3076818165
352,2005526.3195658129
354,2995154.3992060685
356,0.0
522,0.0
544,0.0
566,6.67
567,6.67
568,0.0
569,0.0
581,10.0
582,10.0
583,0.0
584,0.0
586,0.0
588,6.67
589,6.67
590,0.0
591,0.0
593,10.0
594,10.0
595,0.0
658,10.0
659,10.0
660,0.0
661,0.0
662,0.0
663,0.0
674,10.0
675,10.0
676,0.0
677,0.0
678,0.0
679,0.0
2,1, 1,21, 0, 7,40.00,50.00,WinterDesignDay
6,-16.6
7,-16.6
8,0.0008974771856968442
9,98886.0
227,14.995148260895136
260,14.991438712736333
293,15.002031703875274
294,0.0
295,0.0
296,0.0
297,11521.381838150615
298,0.0
299,0.0
300,2010508.4685503366
352,2005771.4672312409
354,3009656.1987998348
356,0.0
522,0.0
544,0.0
566,6.67
567,6.67
568,0.0
569,0.0
581,10.0
582,10.0
583,0.0
584,0.0
586,0.0
588,6.67
589,6.67
590,0.0
591,0.0
593,10.0
594,10.0
595,0.0
658,10.0
659,10.0
660,0.0
661,0.0
662,0.0
663,0.0
674,10.0
675,10.0
676,0.0
677,0.0
678,0.0
679,0.0
2,1, 1,21, 0, 7,50.00,60.00,WinterDesignDay
6,-16.6
7,-16.6
8,0.0008974771856968442
9,98886.0
227,14.999494917910639
260,14.996566217323212
293,15.002553180026899
294,0.0
295,0.0
296,0.0
297,11555.584750955395
298,0.0
299,0.0
300,2019556.9277831929
352,2014000.1892981209
354,3009806.2053696827
356,0.0
522,0.0
544,0.0
566,6.67
567,6.67
568,0.0
569,0.0
581,10.0
582,10.0
583,0.0
584,0.0
586,0.0
588,6.67
589,6.67
590,0.0
591,0.0
593,10.0
594,10.0
595,0.0
658,10.0
659,10.0
660,0.0
661,0.0
662,0.0
663,0.0
674,10.0
675,10.0
676,0.0
677,0.0
678,0.0
679,0.0
2,1, 1,21, 0, 8, 0.00,10.00,WinterDesignDay
6,-16.6
7,-16.6
8,0.0008974771856968442
9,98886.0
227,19.559928032082149
260,19.561390252259476
293,19.241185346344918
294,0.0
295,0.0
296,0.0
297,39925.73788212578
298,0.0
299,0.0
300,3870856.01791222
352,3413172.441884191
354,5147425.925859042
356,0.0
522,0.0
544,0.0
566,6.669999999999999
567,6.669999999999999
568,0.0
569,0.0
581,10.0
582,10.0
583,0.0
584,0.0
586,0.0
588,6.669999999999999
589,6.669999999999999
590,0.0
591,0.0
593,10.0
594,10.0
595,0.0
658,10.0
659,10.0
660,0.0
661,0.0
662,0.0
663,0.0
674,10.0
675,10.0
676,0.0
677,0.0
678,0.0
679,0.0
2,1, 1,21, 0, 8,10.00,20.00,WinterDesignDay
6,-16.6
7,-16.6
8,0.0008974771856968442
9,98886.0
227,19.958018407316275
260,19.960503628648863
293,19.94253802574216
294,0.0
295,0.0
296,0.0
297,28375.83742521272
298,0.0
299,0.0
300,3692296.4936839418
352,3285315.00325556
354,5177239.098401449
356,0.0
522,0.0
544,0.0
566,6.669999999999996
567,6.669999999999996
568,0.0
569,0.0
581,9.999999999999997
582,9.999999999999997
583,0.0
584,0.0
586,0.0
588,6.669999999999996
589,6.669999999999996
590,0.0
591,0.0
593,9.999999999999997
594,9.999999999999997
595,0.0
658,9.999999999999997
659,9.999999999999997
660,0.0
661,0.0
662,0.0
663,0.0
674,9.999999999999997
675,9.999999999999997
676,0.0
677,0.0
678,0.0
679,0.0
2,1, 1,21, 0, 8,20.00,30.00,WinterDesignDay
6,-16.6
7,-16.6
8,0.0008974771856968442
9,98886.0
227,20.0065091724739
260,19.987234684280993
293,20.003243659378574
294,0.0
295,0.0
296,0.0
297,20694.237547283217
298,0.0
299,0.0
300,3575006.868147666
352,3149842.375070015
354,4892926.709089848
356,0.0
522,0.0
544,0.0
566,6.67
567,6.67
568,0.0
569,0.0
581,10.0
582,10.0
583,0.0
584,0.0
586,0.0
588,6.67
589,6.67
590,0.0
591,0.0
593,10.0
594,10.0
595,0.0
658,10.0
659,10.0
660,0.0
661,0.0
662,0.0
663,0.0
674,10.0
675,10.0
676,0.0
677,0.0
678,0.0
679,0.0
2,1, 1,21, 0, 8,30.00,40.00,WinterDesignDay
6,-16.6
7,-16.6
8,0.0008974771856968442
9,98886.0
227,19.994967788367807
260,19.992257873391674
293,20.00543750262273
294,0.0
295,0.0
296,0.0
297,18366.64949558896
298,0.0
299,0.0
300,3380676.4398720969
352,2966268.461221232
354,4720789.074225434
356,0.0
522,0.0
544,0.0
566,6.670000000000003
567,6.670000000000003
568,0.0
569,0.0
581,10.000000000000004
582,10.000000000000004
583,0.0
584,0.0
586,0.0
588,6.670000000000003
589,6.670000000000003
590,0.0
591,0.0
593,10.000000000000004
594,10.000000000000004
595,0.0
658,10.000000000000004
659,10.000000000000004
660,0.0
661,0.0
662,0.0
663,0.0
674,10.000000000000004
675,10.000000000000004
676,0.0
677,0.0
678,0.0
679,0.0
2,1, 1,21, 0, 8,40.00,50.00,WinterDesignDay
6,-16.6
7,-16.6
8,0.0008974771856968442
9,98886.0
227,19.993784072695449
260,19.98806171556863
293,20.00520214342587
294,0.0
295,0.0
296,0.0
297,17656.969455376882
298,0.0
299,0.0
300,3343822.9358979139
352,2908223.253216553
354,4639267.695454183
356,0.0
522,0.0
544,0.0
566,6.67