Program Version,EnergyPlus, Version 8.6.0-198c6a3cff, YMD=2016.11.21 15:05
1,5,Environment Title[],Latitude[deg],Longitude[deg],Time Zone[],Elevation[m]
2,6,Day of Simulation[],Month[],Day of Month[],DST Indicator[1=yes 0=no],Hour[],StartMinute[],EndMinute[],DayType
3,3,Cumulative Day of Simulation[],Month[],Day of Month[],DST Indicator[1=yes 0=no],DayType  ! When Daily Report Variables Requested
4,2,Cumulative Days of Simulation[],Month[]  ! When Monthly Report Variables Requested
5,1,Cumulative Days of Simulation[] ! When Run Period Report Variables Requested
6,1,Environment,Site Outdoor Air Drybulb Temperature [C] !TimeStep
7,1,Environment,Site Outdoor Air Wetbulb Temperature [C] !TimeStep
8,1,Environment,Site Outdoor Air Humidity Ratio [kgWater/kgDryAir] !TimeStep
9,1,Environment,Site Outdoor Air Barometric Pressure [Pa] !TimeStep
227,1,WEST ZONE,Zone Air Temperature [C] !TimeStep
260,1,EAST ZONE,Zone Air Temperature [C] !TimeStep
293,1,NORTH ZONE,Zone Air Temperature [C] !TimeStep
294,1,CHILLED WATER LOOP,Plant Supply Side Cooling Demand Rate [W] !TimeStep
295,1,CHILLED WATER LOOP,Plant Supply Side Heating Demand Rate [W] !TimeStep
296,1,HOT WATER LOOP,Plant Supply Side Cooling Demand Rate [W] !TimeStep
297,1,HOT WATER LOOP,Plant Supply Side Heating Demand Rate [W] !TimeStep
298,1,CHILLED WATER CONDENSER LOOP,Plant Supply Side Cooling Demand Rate [W] !TimeStep
299,1,CHILLED WATER CONDENSER LOOP,Plant Supply Side Heating Demand Rate [W] !TimeStep
300,1,REHEAT COIL ZONE 1,Heating Coil Heating Energy [J] !TimeStep
352,1,REHEAT COIL ZONE 2,Heating Coil Heating Energy [J] !TimeStep
354,1,REHEAT COIL ZONE 3,Heating Coil Heating Energy [J] !TimeStep
356,1,DETAILED COOLING COIL,Cooling Coil Total Cooling Energy [J] !TimeStep
522,1,LITTLE CHILLER,Chiller Electric Power [W] !TimeStep
544,1,LITTLE CHILLER,Chiller Evaporator Cooling Rate [W] !TimeStep
566,1,LITTLE CHILLER,Chiller Evaporator Inlet Temperature [C] !TimeStep
567,1,LITTLE CHILLER,Chiller Evaporator Outlet Temperature [C] !TimeStep
568,1,LITTLE CHILLER,Chiller Evaporator Mass Flow Rate [kg/s] !TimeStep
569,1,LITTLE CHILLER,Chiller Condenser Heat Transfer Rate [W] !TimeStep
581,1,LITTLE CHILLER,Chiller Condenser Inlet Temperature [C] !TimeStep
582,1,LITTLE CHILLER,Chiller Condenser Outlet Temperature [C] !TimeStep
583,1,LITTLE CHILLER,Chiller Condenser Mass Flow Rate [kg/s] !TimeStep
584,1,BIG CHILLER,Chiller Electric Power [W] !TimeStep
586,1,BIG CHILLER,Chiller Evaporator Cooling Rate [W] !TimeStep
588,1,BIG CHILLER,Chiller Evaporator Inlet Temperature [C] !TimeStep
589,1,BIG CHILLER,Chiller Evaporator Outlet Temperature [C] !TimeStep
590,1,BIG CHILLER,Chiller Evaporator Mass Flow Rate [kg/s] !TimeStep
591,1,BIG CHILLER,Chiller Condenser Heat Transfer Rate [W] !TimeStep
593,1,BIG CHILLER,Chiller Condenser Inlet Temperature [C] !TimeStep
594,1,BIG CHILLER,Chiller Condenser Outlet Temperature [C] !TimeStep
595,1,BIG CHILLER,Chiller Condenser Mass Flow Rate [kg/s] !TimeStep
658,1,BIG TOWER1,Cooling Tower Inlet Temperature [C] !TimeStep
659,1,BIG TOWER1,Cooling Tower Outlet Temperature [C] !TimeStep
660,1,BIG TOWER1,Cooling Tower Mass Flow Rate [kg/s] !TimeStep
661,1,BIG TOWER1,Cooling Tower Heat Transfer Rate [W] !TimeStep
662,1,BIG TOWER1,Cooling Tower Fan Electric Power [W] !TimeStep
663,1,BIG TOWER1,Cooling Tower Fan Electric Energy [J] !TimeStep
674,1,BIG TOWER2,Cooling Tower Inlet Temperature [C] !TimeStep
675,1,BIG TOWER2,Cooling Tower Outlet Temperature [C] !TimeStep
676,1,BIG TOWER2,Cooling Tower Mass Flow Rate [kg/s] !TimeStep
677,1,BIG TOWER2,Cooling Tower Heat Transfer Rate [W] !TimeStep
678,1,BIG TOWER2,Cooling Tower Fan Electric Power [W] !TimeStep
679,1,BIG TOWER2,Cooling Tower Fan Electric Energy [J] !TimeStep
End of Data Dictionary
1,CHICAGO OHARE INTL AP ANN HTG 99% CONDNS DB,  27.97, -82.53,  -5.00,   6.00
2,1, 1,21, 0, 1, 0.00,10.00,WinterDesignDay
6,-16.6
7,-16.6
8,0.0008974771856968442
9,98886.0
227,15.007882189405916
260,14.998593317309357
293,14.99890956927041
294,0.0
295,0.0
296,0.0
297,10962.598564801152
298,0.0
299,0.0
300,1848006.7633430863
352,1911685.693633239
354,2811162.9216941215
356,0.0
522,0.0
544,0.0
566,6.67
567,6.67
568,0.0
569,0.0
581,10.0
582,10.0
583,0.0
584,0.0
586,0.0
588,6.67
589,6.67
590,0.0
591,0.0
593,10.0
594,10.0
595,0.0
658,10.0
659,10.0
660,0.0
661,0.0
662,0.0
663,0.0
674,10.0
675,10.0
676,0.0
677,0.0
678,0.0
679,0.0
2,1, 1,21, 0, 1,10.00,20.00,WinterDesignDay
6,-16.6
7,-16.6
8,0.0008974771856968442
9,98886.0
227,15.006611262010413
260,15.001935399213922
293,15.006437703095541
294,0.0
295,0.0
296,0.0
297,11005.517646782473
298,0.0
299,0.0
300,1847878.0955195632
352,1920132.7809966175
354,2826152.4121111917
356,0.0
522,0.0
544,0.0
566,6.67
567,6.67
568,0.0
569,0.0
581,10.0
582,10.0
583,0.0
584,0.0
586,0.0
588,6.67
589,6.67
590,0.0
591,0.0
593,10.0
594,10.0
595,0.0
658,10.0
659,10.0
660,0.0
661,0.0
662,0.0
663,0.0
674,10.0
675,10.0
676,0.0
677,0.0
678,0.0
679,0.0
2,1, 1,21, 0, 1,20.00,30.00,WinterDesignDay
6,-16.6
7,-16.6
8,0.0008974771856968442
9,98886.0
227,14.99641095987014
260,15.006016245580746
293,15.001921303809438
294,0.0
295,0.0
296,0.0
297,10998.567840073485
298,0.0
299,0.0
300,1847748.4717126354
352,1928543.4195437907
354,2825956.872996818
356,0.0
522,0.0
544,0.0
566,6.67
567,6.67
568,0.0
569,0.0
581,10.0
582,10.0
583,0.0
584,0.0
586,0.0
588,6.67
589,6.67
590,0.0
591,0.0
593,10.0
594,10.0
595,0.0
658,10.0
659,10.0
660,0.0
661,0.0
662,0.0
663,0.0
674,10.0
675,10.0
676,0.0
677,0.0
678,0.0
679,0.0
2,1, 1,21, 0, 1,30.00,40.00,WinterDesignDay
6,-16.6
7,-16.6
8,0.0008974771856968442
9,98886.0
227,15.006912138282779
260,14.996386443203808
293,15.00177756788371
294,0.0
295,0.0
296,0.0
297,11062.669952859129
298,0.0
299,0.0
300,1867128.5409516094
352,1928721.0407491716
354,2841318.3674111149
356,0.0
522,0.0
544,0.0
566,6.67
567,6.67
568,0.0
569,0.0
581,10.0
582,10.0
583,0.0
584,0.0
586,0.0
588,6.67
589,6.67
590,0.0
591,0.0
593,10.0
594,10.0
595,0.0
658,10.0
659,10.0
660,0.0
661,0.0
662,0.0
663,0.0
674,10.0
675,10.0
676,0.0
677,0.0
678,0.0
679,0.0
2,1, 1,21, 0, 1,40.00,50.00,WinterDesignDay
6,-16.6
7,-16.6
8,0.0008974771856968442
9,98886.0
227,15.00643908329176
260,15.00506479509264
293,14.994999191971925
294,0.0
295,0.0
296,0.0
297,11073.834128854463
298,0.0
299,0.0
300,1867084.2664447036
352,1945664.8644925149
354,2841251.908402752
356,0.0
522,0.0
544,0.0
566,6.67
567,6.67
568,0.0
569,0.0
581,10.0
582,10.0
583,0.0
584,0.0
586,0.0
588,6.67
589,6.67
590,0.0
591,0.0
593,10.0
594,10.0
595,0.0
658,10.0
659,10.0
660,0.0
661,0.0
662,0.0
663,0.0
674,10.0
675,10.0
676,0.0
677,0.0
678,0.0
679,0.0
2,1, 1,21, 0, 1,50.00,60.00,WinterDesignDay
6,-16.6
7,-16.6
8,0.0008974771856968442
9,98886.0
227,14.99540168291496
260,15.002886597834819
293,14.997112506944312
294,0.0
295,0.0
296,0.0
297,11102.489452951499
298,0.0
299,0.0
300,1867093.2386365124
352,1945674.2023093142
354,2856291.793208969
356,0.0
522,0.0
544,0.0
566,6.67
567,6.67
568,0.0
569,0.0
581,10.0
582,10.0
583,0.0
584,0.0
586,0.0
588,6.67
589,6.67
590,0.0
591,0.0
593,10.0
594,10.0
595,0.0
658,10.0
659,10.0
660,0.0
661,0.0
662,0.0
663,0.0
674,10.0
675,10.0
676,0.0
677,0.0
678,0.0
679,0.0
2,1, 1,21, 0, 2, 0.00,10.00,WinterDesignDay
6,-16.6
7,-16.6
8,0.0008974771856968442
9,98886.0
227,15.0058399122815
260,15.000388451837243
293,15.005053150251755
294,0.0
295,0.0
296,0.0
297,11182.947335053983
298,0.0
299,0.0
300,1886314.1441651344
352,1954282.8650919449
354,2871479.667500729
356,0.0
522,0.0
544,0.0
566,6.67
567,6.67
568,0.0
569,0.0
581,10.0
582,10.0
583,0.0
584,0.0
586,0.0
588,6.67
589,6.67
590,0.0
591,0.0
593,10.0
594,10.0
595,0.0
658,10.0
659,10.0
660,0.0
661,0.0
662,0.0
663,0.0
674,10.0
675,10.0
676,0.0
677,0.0
678,0.0
679,0.0
2,1, 1,21, 0, 2,10.00,20.00,WinterDesignDay
6,-16.6
7,-16.6
8,0.0008974771856968442
9,98886.0
227,15.007929393036403
260,15.004932241054578
293,15.001456253556528
294,0.0
295,0.0
296,0.0
297,11177.19608882677
298,0.0
299,0.0
300,1886067.2020635918
352,1962437.805152091
354,2871108.9187284277
356,0.0
522,0.0
544,0.0
566,6.67
567,6.67
568,0.0
569,0.0
581,10.0
582,10.0
583,0.0
584,0.0
586,0.0
588,6.67
589,6.67
590,0.0
591,0.0
593,10.0
594,10.0
595,0.0
658,10.0
659,10.0
660,0.0
661,0.0
662,0.0
663,0.0
674,10.0
675,10.0
676,0.0
677,0.0
678,0.0
679,0.0
2,1, 1,21, 0, 2,20.00,30.00,WinterDesignDay
6,-16.6
7,-16.6
8,0.0008974771856968442
9,98886.0
227,14.998815394379188
260,14.99942035964586
293,15.004036723137022
294,0.0
295,0.0
296,0.0
297,11205.701520578265
298,0.0
299,0.0
300,1886037.6125853656
352,1962407.0561647206
354,2885936.6196293968
356,0.0
522,0.0
544,0.0
566,6.67
567,6.67
568,0.0
569,0.0
581,10.0
582,10.0
583,0.0
584,0.0
586,0.0
588,6.67
589,6.67
590,0.0
591,0.0
593,10.0
594,10.0
595,0.0
658,10.0
659,10.0
660,0.0
661,0.0
662,0.0
663,0.0
674,10.0
675,10.0
676,0.0
677,0.0
678,0.0
679,0.0
2,1, 1,21, 0, 2,30.00,40.00,WinterDesignDay
6,-16.6
7,-16.6
8,0.0008974771856968442
9,98886.0
227,14.998168172630822
260,14.997385548515137
293,14.998017363852512
294,0.0
295,0.0
296,0.0
297,11219.63482031531
298,0.0
299,0.0
300,1895675.5678131658
352,1970952.5707340076
354,2886180.002479604
356,0.0
522,0.0
544,0.0
566,6.67
567,6.67
568,0.0
569,0.0
581,10.0
582,10.0
583,0.0
584,0.0
586,0.0
588,6.67
589,6.67
590,0.0
591,0.0
593,10.0
594,10.0
595,0.0
658,10.0
659,10.0
660,0.0
661,0.0
662,0.0
663,0.0
674,10.0
675,10.0
676,0.0
677,0.0
678,0.0
679,0.0
2,1, 1,21, 0, 2,40.00,50.00,WinterDesignDay
6,-16.6
7,-16.6
8,0.0008974771856968442
9,98886.0
227,15.003813173181138
260,15.000484560312799
293,14.999767412715713
294,0.0
295,0.0
296,0.0
297,11283.72135723599
298,0.0
299,0.0
300,1905240.7221013299
352,1979426.755402254
354,2901164.690749807
356,0.0
522,0.0
544,0.0
566,6.67
567,6.67
568,0.0
569,0.0
581,10.0
582,10.0
583,0.0
584,0.0
586,0.0
588,6.67
589,6.67
590,0.0
591,0.0
593,10.0
594,10.0
595,0.0
658,10.0
659,10.0
660,0.0
661,0.0
662,0.0
663,0.0
674,10.0
675,10.0
676,0.0
677,0.0
678,0.0
679,0.0
2,1, 1,21, 0, 2,50.00,60.00,WinterDesignDay
6,-16.6
7,-16.6
8,0.0008974771856968442
9,98886.0
227,15.000469724451124
260,14.995282622431418
293,14.996003751477185
294,0.0
295,0.0
296,0.0
297,11263.817852858088
298,0.0
299,0.0
300,1905092.7847019979
352,1979273.246257062
354,2900942.5479926166
356,0.0
522,0.0
544,0.0
566,6.67
567,6.67
568,0.0
569,0.0
581,10.0
582,10.0
583,0.0
584,0.0
586,0.0
588,6.67
589,6.67
590,0.0
591,0.0
593,10.0
594,10.0
595,0.0
658,10.0
659,10.0
660,0.0
661,0.0
662,0.0
663,0.0
674,10.0
675,10.0
676,0.0
677,0.0
678,0.0
679,0.0
2,1, 1,21, 0, 3, 0.00,10.00,WinterDesignDay
6,-16.6
7,-16.6
8,0.0008974771856968442
9,98886.0
227,15.001061918658288
260,15.005307097726549
293,14.998905945734878
294,0.0
295,0.0
296,0.0
297,11345.049098971931
298,0.0
299,0.0
300,1914666.2333700748
352,1996040.6186270733
354,2915918.464879826
356,0.0
522,0.0
544,0.0
566,6.67
567,6.67
568,0.0
569,0.0
581,10.0
582,10.0
583,0.0
584,0.0
586,0.0
588,6.67
589,6.67
590,0.0
591,0.0
593,10.0
594,10.0
595,0.0
658,10.0
659,10.0
660,0.0
661,0.0
662,0.0
663,0.0
674,10.0
675,10.0
676,0.0
677,0.0
678,0.0
679,0.0
2,1, 1,21, 0, 3,10.00,20.00,WinterDesignDay
6,-16.6
7,-16.6
8,0.0008974771856968442
9,98886.0
227,15.008982813741014
260,15.005201481865698
293,14.99545664239132
294,0.0
295,0.0
296,0.0
297,11343.427279248182
298,0.0
299,0.0
300,1923865.3251372567
352,1995863.6184038583
354,2915663.158861108
356,0.0
522,0.0
544,0.0
566,6.67
567,6.67
568,0.0
569,0.0
581,10.0
582,10.0
583,0.0
584,0.0
586,0.0
588,6.67
589,6.67
590,0.0
591,0.0
593,10.0
594,10.0
595,0.0
658,10.0
659,10.0
660,0.0
661,0.0
662,0.0
663,0.0
674,10.0
675,10.0
676,0.0
677,0.0
678,0.0
679,0.0
2,1, 1,21, 0, 3,20.00,30.00,WinterDesignDay
6,-16.6
7,-16.6
8,0.0008974771856968442
9,98886.0
227,15.006336032797732
260,14.995245029874292
293,15.000102142270507
294,0.0
295,0.0
296,0.0
297,11374.005343802062
298,0.0
299,0.0
300,1923798.195315322
352,1995794.0598822106
354,2930210.4509019867
356,0.0
522,0.0
544,0.0
566,6.67
567,6.67
568,0.0
569,0.0
581,10.0
582,10.0
583,0.0
584,0.0
586,0.0
588,6.67
589,6.67
590,0.0
591,0.0
593,10.0
594,10.0
595,0.0
658,10.0
659,10.0
660,0.0
661,0.0
662,0.0
663,0.0
674,10.0
675,10.0
676,0.0
677,0.0
678,0.0
679,0.0
2,1, 1,21, 0, 3,30.00,40.00,WinterDesignDay
6,-16.6
7,-16.6
8,0.0008974771856968442
9,98886.0
227,14.996399603862335
260,15.005580006825886
293,14.996160028138597
294,0.0
295,0.0
296,0.0
297,11388.402271464682
298,0.0
299,0.0
300,1923884.2347623246
352,2012345.7442824296
354,2930339.664694062
356,0.0
522,0.0
544,0.0
566,6.67
567,6.67
568,0.0
569,0.0
581,10.0
582,10.0
583,0.0
584,0.0
586,0.0
588,6.67
589,6.67
590,0.0
591,0.0
593,10.0
594,10.0
595,0.0
658,10.0
659,10.0
660,0.0
661,0.0
662,0.0
663,0.0
674,10.0
675,10.0
676,0.0
677,0.0
678,0.0
679,0.0
2,1, 1,21, 0, 3,40.00,50.00,WinterDesignDay
6,-16.6
7,-16.6
8,0.0008974771856968442
9,98886.0
227,14.997792857201564
260,15.005290441792904
293,14.999276981081059
294,0.0
295,0.0
296,0.0
297,11437.218898607178
298,0.0
299,0.0
300,1933309.694256553
352,2012440.9579961408
354,2945051.7677599347
356,0.0
522,0.0
544,0.0
566,6.67
567,6.67
568,0.0
569,0.0
581,10.0
582,10.0
583,0.0
584,0.0
586,0.0
588,6.67
589,6.67
590,0.0
591,0.0
593,10.0
594,10.0
595,0.0
658,10.0
659,10.0
660,0.0
661,0.0
662,0.0
663,0.0
674,10.0
675,10.0
676,0.0
677,0.0
678,0.0
679,0.0
2,1, 1,21, 0, 3,50.00,60.00,WinterDesignDay
6,-16.6
7,-16.6
8,0.0008974771856968442
9,98886.0
227,15.006622431936345
260,14.99529516307974
293,14.996088541038866
294,0.0
295,0.0
296,0.0
297,11436.987447359834
298,0.0
299,0.0
300,1942542.726084371
352,2012372.4761641164
354,2944952.8316742356
356,0.0
522,0.0
544,0.0
566,6.67
567,6.67
568,0.0
569,0.0
581,10.0
582,10.0
583,0.0
584,0.0
586,0.0
588,6.67
589,6.67
590,0.0
591,0.0
593,10.0
594,10.0
595,0.0
658,10.0
659,10.0
660,0.0
661,0.0
662,0.0
663,0.0
674,10.0
675,10.0
676,0.0
677,0.0
678,0.0
679,0.0
2,1, 1,21, 0, 4, 0.00,10.00,WinterDesignDay
6,-16.6
7,-16.6
8,0.0008974771856968442
9,98886.0
227,15.003370910268773
260,15.006314018056394
293,15.000585224523638
294,0.0
295,0.0
296,0.0
297,11501.023897598887
298,0.0
299,0.0
300,1942573.8208934083
352,2028740.0293048237
354,2959501.211555179
356,0.0
522,0.0
544,0.0
566,6.67
567,6.67
568,0.0
569,0.0
581,10.0
582,10.0
583,0.0
584,0.0
586,0.0
588,6.67
589,6.67
590,0.0
591,0.0
593,10.0
594,10.0
595,0.0
658,10.0
659,10.0
660,0.0
661,0.0
662,0.0
663,0.0
674,10.0
675,10.0
676,0.0
677,0.0
678,0.0
679,0.0
2,1, 1,21, 0, 4,10.00,20.00,WinterDesignDay
6,-16.6
7,-16.6
8,0.0008974771856968442
9,98886.0
227,14.995509811227372
260,15.008440214488758
293,14.998577621692777
294,0.0
295,0.0
296,0.0
297,11483.189934267357
298,0.0
299,0.0
300,1942424.3497064433
352,2028584.1481491833
354,2959276.713853759
356,0.0
522,0.0
544,0.0
566,6.67
567,6.67
568,0.0
569,0.0
581,10.0
582,10.0
583,0.0
584,0.0
586,0.0
588,6.67
589,6.67
590,0.0
591,0.0
593,10.0
594,10.0
595,0.0
658,10.0
659,10.0
660,0.0
661,0.0
662,0.0
663,0.0
674,10.0
675,10.0
676,0.0
677,0.0
678,0.0
679,0.0
2,1, 1,21, 0, 4,20.00,30.00,WinterDesignDay
6,-16.6
7,-16.6
8,0.0008974771856968442
9,98886.0
227,14.998028193118725
260,14.998447594993845
293,15.002910282089351
294,0.0
295,0.0
296,0.0
297,11532.623329935177
298,0.0
299,0.0
300,1951815.6196973434
352,2028716.7720874
354,2973897.037663475
356,0.0
522,0.0
544,0.0
566,6.67
567,6.67
568,0.0
569,0.0
581,10.0
582,10.0
583,0.0
584,0.0
586,0.0
588,6.67
589,6.67
590,0.0
591,0.0
593,10.0
594,10.0
595,0.0
658,10.0
659,10.0
660,0.0
661,0.0
662,0.0
663,0.0
674,10.0
675,10.0
676,0.0
677,0.0
678,0.0
679,0.0
2,1, 1,21, 0, 4,30.00,40.00,WinterDesignDay
6,-16.6
7,-16.6
8,0.0008974771856968442
9,98886.0
227,15.006452874501117
260,14.998354798626002
293,14.999807306278934
294,0.0
295,0.0
296,0.0
297,11549.347901647103
298,0.0
299,0.0
300,1961057.6099276297
352,2036849.993008109
354,2973915.735037708
356,0.0
522,0.0
544,0.0
566,6.67
567,6.67
568,0.0
569,0.0
581,10.0
582,10.0
583,0.0
584,0.0
586,0.0
588,6.67
589,6.67
590,0.0
591,0.0
593,10.0
594,10.0
595,0.0
658,10.0
659,10.0
660,0.0
661,0.0
662,0.0
663,0.0
674,10.0
675,10.0
676,0.0
677,0.0
678,0.0
679,0.0
2,1, 1,21, 0, 4,40.00,50.00,WinterDesignDay
6,-16.6
7,-16.6
8,0.0008974771856968442
9,98886.0
227,15.004279374020945
260,15.006233199101239
293,15.005233268109686
294,0.0
295,0.0
296,0.0
297,11597.176382563803
298,0.0
299,0.0
300,1960975.8270151432
352,2044853.8283291809
354,2988150.508269529
356,0.0
522,0.0
544,0.0
566,6.67
567,6.67
568,0.0
569,0.0
581,10.0
582,10.0
583,0.0
584,0.0
586,0.0
588,6.67
589,6.67
590,0.0
591,0.0
593,10.0
594,10.0
595,0.0
658,10.0
659,10.0
660,0.0
661,0.0
662,0.0
663,0.0
674,10.0
675,10.0
676,0.0
677,0.0
678,0.0
679,0.0
2,1, 1,21, 0, 4,50.00,60.00,WinterDesignDay
6,-16.6
7,-16.6
8,0.0008974771856968442
9,98886.0
227,14.997410471575254
260,15.004097185811358
293,15.004231746373313
294,0.0
295,0.0
296,0.0
297,11580.060153471388
298,0.0
299,0.0
300,1960831.1739676174
352,2044703.196253065
354,2987933.231242155
356,0.0
522,0.0
544,0.0
566,6.67
567,6.67
568,0.0
569,0.0
581,10.0
582,10.0
583,0.0
584,0.0
586,0.0
588,6.67
589,6.67
590,0.0
591,0.0
593,10.0
594,10.0
595,0.0
658,10.0
659,10.0
660,0.0
661,0.0
662,0.0
663,0.0
674,10.0
675,10.0
676,0.0
677,0.0
678,0.0
679,0.0
2,1, 1,21, 0, 5, 0.00,10.00,WinterDesignDay
6,-16.6
7,-16.6
8,0.0008974771856968442
9,98886.0
227,15.000226369931517
260,14.993924619638248
293,15.009058716819139
294,0.0
295,0.0
296,0.0
297,11629.732606645655
298,0.0
299,0.0
300,1970174.0467408007
352,2044857.3891708286
354,3002441.546816001
356,0.0
522,0.0
544,0.0
566,6.67
567,6.67
568,0.0
569,0.0
581,10.0
582,10.0
583,0.0
584,0.0
586,0.0
588,6.67
589,6.67
590,0.0
591,0.0
593,10.0
594,10.0
595,0.0
658,10.0
659,10.0
660,0.0
661,0.0
662,0.0
663,0.0
674,10.0
675,10.0
676,0.0
677,0.0
678,0.0
679,0.0
2,1, 1,21, 0, 5,10.00,20.00,WinterDesignDay
6,-16.6
7,-16.6
8,0.0008974771856968442
9,98886.0
227,15.009002363987252
260,15.005901605496149
293,15.006546851637369
294,0.0
295,0.0
296,0.0
297,11662.822301758017
298,0.0
299,0.0
300,1979337.0316577757
352,2060944.0842034387
354,3002445.046034984
356,0.0
522,0.0
544,0.0
566,6.67
567,6.67
568,0.0
569,0.0
581,10.0
582,10.0
583,0.0
584,0.0
586,0.0
588,6.67
589,6.67
590,0.0
591,0.0
593,10.0
594,10.0
595,0.0
658,10.0
659,10.0
660,0.0
661,0.0
662,0.0
663,0.0
674,10.0
675,10.0
676,0.0
677,0.0
678,0.0
679,0.0
2,1, 1,21, 0, 5,20.00,30.00,WinterDesignDay
6,-16.6
7,-16.6
8,0.0008974771856968442
9,98886.0
227,15.008730074119896
260,15.009836755332609
293,14.99987208407179
294,0.0
295,0.0
296,0.0
297,11647.510517358107
298,0.0
299,0.0
300,1979094.38384731
352,2060691.7737801239
354,3002082.204891969
356,0.0
522,0.0
544,0.0
566,6.67
567,6.67
568,0.0
569,0.0
581,10.0
582,10.0
583,0.0
584,0.0
586,0.0
588,6.67
589,6.67
590,0.0
591,0.0
593,10.0
594,10.0
595,0.0
658,10.0
659,10.0
660,0.0
661,0.0
662,0.0
663,0.0
674,10.0
675,10.0
676,0.0
677,0.0
678,0.0
679,0.0
2,1, 1,21, 0, 5,30.00,40.00,WinterDesignDay
6,-16.6
7,-16.6
8,0.0008974771856968442
9,98886.0
227,15.001226178368216
260,15.001709795928166
293,15.00543416521632
294,0.0
295,0.0
296,0.0
297,11681.030363345217
298,0.0
299,0.0
300,1979156.1996999446
352,2060756.0512457675
354,3016388.771225476
356,0.0
522,0.0
544,0.0
566,6.67
567,6.67
568,0.0
569,0.0
581,10.0
582,10.0
583,0.0
584,0.0
586,0.0
588,6.67
589,6.67
590,0.0
591,0.0
593,10.0
594,10.0
595,0.0
658,10.0
659,10.0
660,0.0
661,0.0
662,0.0
663,0.0
674,10.0
675,10.0
676,0.0
677,0.0
678,0.0
679,0.0
2,1, 1,21, 0, 5,40.00,50.00,WinterDesignDay
6,-16.6
7,-16.6
8,0.0008974771856968442
9,98886.0
227,14.992675798292775
260,15.001915708235652
293,15.00387275514141
294,0.0
295,0.0
296,0.0
297,11682.305759486771
298,0.0
299,0.0
300,1979284.560729191
352,2068885.2927156534
354,3016581.585547186
356,0.0
522,0.0
544,0.0
566,6.67
567,6.67
568,0.0
569,0.0
581,10.0
582,10.0
583,0.0
584,0.0
586,0.0
588,6.67
589,6.67
590,0.0
591,0.0
593,10.0
594,10.0
595,0.0
658,10.0
659,10.0
660,0.0
661,0.0
662,0.0
663,0.0
674,10.0
675,10.0
676,0.0
677,0.0
678,0.0
679,0.0
2,1, 1,21, 0, 5,50.00,60.00,WinterDesignDay
6,-16.6
7,-16.6
8,0.0008974771856968442
9,98886.0
227,14.995846548979412
260,15.008541070981739
293,15.008457159682786
294,0.0
295,0.0
296,0.0
297,11749.243520784938
298,0.0
299,0.0
300,1988568.2047354
352,2077014.446030003
354,3030962.6971628
356,0.0
522,0.0
544,0.0
566,6.67
567,6.67
568,0.0
569,0.0
581,10.0
582,10.0
583,0.0
584,0.0
586,0.0
588,6.67
589,6.67
590,0.0
591,0.0
593,10.0
594,10.0
595,0.0
658,10.0
659,10.0
660,0.0
661,0.0
662,0.0
663,0.0
674,10.0
675,10.0
676,0.0
677,0.0
678,0.0
679,0.0
2,1, 1,21, 0, 6, 0.00,10.00,WinterDesignDay
6,-16.6
7,-16.6
8,0.0008974771856968442
9,98886.0
227,15.006920375279395
260,15.007020017606797
293,15.00775320187809
294,0.0
295,0.0
296,0.0
297,11751.21128344719
298,0.0
299,0.0
300,1997458.229109638
352,2076803.1870326433
354,3030658.427274498
356,0.0
522,0.0
544,0.0
566,6.67
567,6.67
568,0.0
569,0.0
581,10.0
582,10.0
583,0.0
584,0.0
586,0.0
588,6.67
589,6.67
590,0.0
591,0.0
593,10.0
594,10.0
595,0.0
658,10.0
659,10.0
660,0.0
661,0.0
662,0.0
663,0.0
674,10.0
675,10.0
676,0.0
677,0.0
678,0.0
679,0.0
2,1, 1,21, 0, 6,10.00,20.00,WinterDesignDay
6,-16.6
7,-16.6
8,0.0008974771856968442
9,98886.0
227,15.00699657347055
260,15.000264622701606
293,15.001895125131283
294,0.0
295,0.0
296,0.0
297,11737.620977969173
298,0.0
299,0.0
300,1997312.2580196788
352,2076651.6184229335
354,3030440.127020127
356,0.0
522,0.0
544,0.0
566,6.67
567,6.67
568,0.0
569,0.0
581,10.0
582,10.0
583,0.0
584,0.0
586,0.0
588,6.67
589,6.67
590,0.0
591,0.0
593,10.0
594,10.0
595,0.0
658,10.0
659,10.0
660,0.0
661,0.0
662,0.0
663,0.0
674,10.0
675,10.0
676,0.0
677,0.0
678,0.0
679,0.0
2,1, 1,21, 0, 6,20.00,30.00,WinterDesignDay
6,-16.6
7,-16.6
8,0.0008974771856968442
9,98886.0
227,14.998566528576209
260,15.002220829415326
293,14.993458483085944
294,0.0
295,0.0
296,0.0
297,11741.905769140094
298,0.0
299,0.0
300,1997486.0032441086
352,2084766.8747493055
354,3030699.963522128
356,0.0
522,0.0
544,0.0
566,6.67
567,6.67
568,0.0
569,0.0
581,10.0
582,10.0
583,0.0
584,0.0
586,0.0
588,6.67
589,6.67
590,0.0
591,0.0
593,10.0
594,10.0
595,0.0
658,10.0
659,10.0
660,0.0
661,0.0
662,0.0
663,0.0
674,10.0
675,10.0
676,0.0
677,0.0
678,0.0
679,0.0
2,1, 1,21, 0, 6,30.00,40.00,WinterDesignDay
6,-16.6
7,-16.6
8,0.0008974771856968442
9,98886.0
227,15.000154564133695
260,15.008651368168908
293,14.997977240352949
294,0.0
295,0.0
296,0.0
297,11811.164268846182
298,0.0
299,0.0
300,2006790.0061461754
352,2092926.5074319579
354,3045141.6170203036
356,0.0
522,0.0
544,0.0
566,6.67
567,6.67
568,0.0
569,0.0
581,10.0
582,10.0
583,0.0
584,0.0
586,0.0
588,6.67
589,6.67
590,0.0
591,0.0
593,10.0
594,10.0
595,0.0
658,10.0
659,10.0
660,0.0
661,0.0
662,0.0
663,0.0
674,10.0
675,10.0
676,0.0
677,0.0
678,0.0
679,0.0
2,1, 1,21, 0, 6,40.00,50.00,WinterDesignDay
6,-16.6
7,-16.6
8,0.0008974771856968442
9,98886.0
227,14.99997942308202
260,15.006832419952137
293,14.998537585909548
294,0.0
295,0.0
296,0.0
297,11798.2143424697
298,0.0
299,0.0
300,2006614.2851583416
352,2092743.5051840048
354,3044878.815345012
356,0.0
522,0.0
544,0.0
566,6.67
567,6.67
568,0.0
569,0.0
581,10.0
582,10.0
583,0.0
584,0.0
586,0.0
588,6.67
589,6.67
590,0.0
591,0.0
593,10.0
594,10.0
595,0.0
658,10.0
659,10.0
660,0.0
661,0.0
662,0.0
663,0.0
674,10.0
675,10.0
676,0.0
677,0.0
678,0.0
679,0.0
2,1, 1,21, 0, 6,50.00,60.00,WinterDesignDay
6,-16.6
7,-16.6
8,0.0008974771856968442
9,98886.0
227,15.005604426483698
260,14.999374143976409
293,15.005591520902922
294,0.0
295,0.0
296,0.0
297,11850.500200475217
298,0.0
299,0.0
300,2015656.6626570819
352,2092760.2263146414
354,3058910.175741141
356,0.0
522,0.0
544,0.0
566,6.67
567,6.67
568,0.0
569,0.0
581,10.0
582,10.0
583,0.0
584,0.0
586,0.0
588,6.67
589,6.67
590,0.0
591,0.0
593,10.0
594,10.0
595,0.0
658,10.0
659,10.0
660,0.0
661,0.0
662,0.0
663,0.0
674,10.0
675,10.0
676,0.0
677,0.0
678,0.0
679,0.0
2,1, 1,21, 0, 7, 0.00,10.00,WinterDesignDay
6,-16.6
7,-16.6
8,0.0008974771856968442
9,98886.0
227,14.999630517577904
260,15.001709777727492
293,15.00209529133753
294,0.0
295,0.0
296,0.0
297,11397.583179610265
298,0.0
299,0.0
300,1997460.2785670998
352,2004004.5510798784
354,2988016.764975753
356,0.0
522,0.0
544,0.0
566,6.67
567,6.67
568,0.0
569,0.0
581,10.0
582,10.0
583,0.0
584,0.0
586,0.0
588,6.67
589,6.67
590,0.0
591,0.0
593,10.0
594,10.0
595,0.0
658,10.0
659,10.0
660,0.0
661,0.0
662,0.0
663,0.0
674,10.0
675,10.0
676,0.0
677,0.0
678,0.0
679,0.0
2,1, 1,21, 0, 7,10.00,20.00,WinterDesignDay
6,-16.6
7,-16.6
8,0.0008974771856968442
9,98886.0
227,14.990816327448848
260,15.00204294665172
293,15.008250333844007
294,0.0
295,0.0
296,0.0
297,11454.507609074719
298,0.0
299,0.0
300,1997583.3757155224
352,2004128.3776396786
354,3002484.3307733444
356,0.0
522,0.0
544,0.0
566,6.67
567,6.67
568,0.0
569,0.0
581,10.0
582,10.0
583,0.0
584,0.0
586,0.0
588,6.67
589,6.67
590,0.0
591,0.0
593,10.0
594,10.0
595,0.0
658,10.0
659,10.0
660,0.0
661,0.0
662,0.0
663,0.0
674,10.0
675,10.0
676,0.0
677,0.0
678,0.0
679,0.0
2,1, 1,21, 0, 7,20.00,30.00,WinterDesignDay
6,-16.6
7,-16.6
8,0.0008974771856968442
9,98886.0
227,14.995579974000233
260,14.998074183860276
293,15.009111048329329
294,0.0
295,0.0
296,0.0
297,11477.553540464025
298,0.0
299,0.0
300,2006681.8983962802
352,2004167.35064849
354,3002541.618762048
356,0.0
522,0.0
544,0.0
566,6.67
567,6.67
568,0.0
569,0.0
581,10.0
582,10.0
583,0.0
584,0.0
586,0.0
588,6.67
589,6.67
590,0.0
591,0.0
593,10.0
594,10.0
595,0.0
658,10.0
659,10.0
660,0.0
661,0.0
662,0.0
663,0.0
674,10.0
675,10.0
676,0.0
677,0.0
678,0.0
679,0.0
2,1, 1,21, 0, 7,30.00,40.00,WinterDesignDay
6,-16.6
7,-16.6
8,0.0008974771856968442
9,98886.0
227,15.006814550555552
260,15.004490687086987
293,15.004247621372901
294,0.0
295,0.0
296,0.0
297,11515.300178634174
298,0.0
299,0.0
300,2015667.7309850192
352,2012342.2364870718
354,3002481.7145567785
356,0.0
522,0.0
544,0.0
566,6.67
567,6.67
568,0.0
569,0.0
581,10.0
582,10.0
583,0.0
584,0.0
586,0.0
588,6.67
589,6.67
590,0.0
591,0.0
593,10.0
594,10.0
595,0.0
658,10.0
659,10.0
660,0.0
661,0.0
662,0.0
663,0.0
674,10.0
675,10.0
676,0.0
677,0.0
678,0.0
679,0.0
2,1, 1,21, 0, 7,40.00,50.00,WinterDesignDay
6,-16.6
7,-16.6
8,0.0008974771856968442
9,98886.0
227,15.007615360051226
260,15.006555433127625
293,14.999460301577793
294,0.0
295,0.0
296,0.0
297,11518.495011301047
298,0.0
299,0.0
300,2015488.192710819
352,2012163.2892293353
354,3002217.8204857956
356,0.0
522,0.0
544,0.0
566,6.67
567,6.67
568,0.0
569,0.0
581,10.0
582,10.0
583,0.0
584,0.0
586,0.0
588,6.67
589,6.67
590,0.0
591,0.0
593,10.0
594,10.0
595,0.0
658,10.0
659,10.0
660,0.0
661,0.0
662,0.0
663,0.0
674,10.0
675,10.0
676,0.0
677,0.0
678,0.0
679,0.0
2,1, 1,21, 0, 7,50.00,60.00,WinterDesignDay
6,-16.6
7,-16.6
8,0.0008974771856968442
9,98886.0
227,15.001458015743877
260,15.002082290467588
293,14.994621530829623
294,0.0
295,0.0
296,0.0
297,11521.171417504738
298,0.0
299,0.0
300,2015526.8847308947
352,2012201.9718290906
354,3002274.639292813
356,0.0
522,0.0
544,0.0
566,6.67
567,6.67
568,0.0
569,0.0
581,10.0
582,10.0
583,0.0
584,0.0
586,0.0
588,6.67
589,6.67
590,0.0
591,0.0
593,10.0
594,10.0
595,0.0
658,10.0
659,10.0
660,0.0
661,0.0
662,0.0
663,0.0
674,10.0
675,10.0
676,0.0
677,0.0
678,0.0
679,0.0
2,1, 1,21, 0, 8, 0.00,10.00,WinterDesignDay
6,-16.6
7,-16.6
8,0.0008974771856968442
9,98886.0
227,19.563428518274326
260,19.56829863568203
293,19.246700907408948
294,0.0
295,0.0
296,0.0
297,39858.49711072322
298,0.0
299,0.0
300,3875716.937305908
352,3418425.5941548615
354,5150982.1161673529
356,0.0
522,0.0
544,0.0
566,6.669999999999999
567,6.669999999999999
568,0.0
569,0.0
581,10.0
582,10.0
583,0.0
584,0.0
586,0.0
588,6.669999999999999
589,6.669999999999999
590,0.0
591,0.0
593,10.0
594,10.0
595,0.0
658,10.0
659,10.0
660,0.0
661,0.0
662,0.0
663,0.0
674,10.0
675,10.0
676,0.0
677,0.0
678,0.0
679,0.0
2,1, 1,21, 0, 8,10.00,20.00,WinterDesignDay
6,-16.6
7,-16.6
8,0.0008974771856968442
9,98886.0
227,19.95137398002841
260,19.961308227403288
293,19.940324218708086
294,0.0
295,0.0
296,0.0
297,28203.59612283128
298,0.0
299,0.0
300,3688613.228433237
352,3286465.927632768
354,5178494.071880587
356,0.0
522,0.0
544,0.0
566,6.669999999999996
567,6.669999999999996
568,0.0
569,0.0
581,9.999999999999997
582,9.999999999999997
583,0.0
584,0.0
586,0.0
588,6.669999999999996
589,6.669999999999996
590,0.0
591,0.0
593,9.999999999999997
594,9.999999999999997
595,0.0
658,9.999999999999997
659,9.999999999999997
660,0.0
661,0.0
662,0.0
663,0.0
674,9.999999999999997
675,9.999999999999997
676,0.0
677,0.0
678,0.0
679,0.0
2,1, 1,21, 0, 8,20.00,30.00,WinterDesignDay
6,-16.6
7,-16.6
8,0.0008974771856968442
9,98886.0
227,19.997044350774528
260,20.001810590433668
293,20.005119727065638
294,0.0
295,0.0
296,0.0
297,20794.395681853974
298,0.0
299,0.0
300,3569940.8884590405
352,3162179.1960521105
354,4899131.644040837
356,0.0
522,0.0
544,0.0
566,6.67
567,6.67
568,0.0
569,0.0
581,10.0
582,10.0
583,0.0
584,0.0
586,0.0
588,6.67
589,6.67
590,0.0
591,0.0
593,10.0
594,10.0
595,0.0
658,10.0
659,10.0
660,0.0
661,0.0
662,0.0
663,0.0
674,10.0
675,10.0
676,0.0
677,0.0
678,0.0
679,0.0
2,1, 1,21, 0, 8,30.00,40.00,WinterDesignDay
6,-16.6
7,-16.6
8,0.0008974771856968442
9,98886.0
227,20.00573403677555
260,20.00089736250023
293,19.990690281871559
294,0.0
295,0.0
296,0.0
297,18345.343361365423
298,0.0
299,0.0
300,3391132.328811582
352,2967214.579228243
354,4702524.52303947
356,0.0
522,0.0
544,0.0
566,6.670000000000003
567,6.670000000000003
568,0.0
569,0.0
581,10.000000000000004
582,10.000000000000004
583,0.0
584,0.0
586,0.0
588,6.670000000000003
589,6.670000000000003
590,0.0
591,0.0
593,10.000000000000004
594,10.000000000000004
595,0.0
658,10.000000000000004
659,10.000000000000004
660,0.0
661,0.0
662,0.0
663,0.0
674,10.000000000000004
675,10.000000000000004
676,0.0
677,0.0
678,0.0
679,0.0
2,1, 1,21, 0, 8,40.00,50.00,WinterDesignDay
6,-16.6
7,-16.6
8,0.0008974771856968442
9,98886.0
227,19.98993130187405
260,20.002265234117524
293,19.998371248117967
294,0.0
295,0.0
296,0.0
297,17712.00878851232
298,0.0
299,0.0
300,3335169.5581855846
352,2918390.1381337225
354,4639817.581945233
356,0.0
522,0.0
544,0.0
566,6.67
567,6.67
568,0.0